<preamble>

<basis_specs>
===============================================================================
Cl                   Z=  17    Mass=  35.450        Charge= 0.17977+309
Lmxo=2 Lmxkb= 2    BasisType=split      Semic=F
L=0  Nsemic=0  Cnfigmx=3
          i=1  nzeta=2  polorb=0  (3s)
            splnorm:   0.15000    
               vcte:    40.000    
               rinn:    4.7188    
               qcoe:    0.0000    
               qyuk:    0.0000    
               qwid:   0.10000E-01
                rcs:    5.2432      2.9877    
            lambdas:    1.0000      1.0000    
L=1  Nsemic=0  Cnfigmx=3
          i=1  nzeta=2  polorb=1  (3p)  (to be polarized perturbatively)
            splnorm:   0.15000    
               vcte:    40.000    
               rinn:    6.0617    
               qcoe:    0.0000    
               qyuk:    0.0000    
               qwid:   0.10000E-01
                rcs:    6.7352      3.8468    
            lambdas:    1.0000      1.0000    
L=2  Nsemic=0  Cnfigmx=3
          i=1  nzeta=0  polorb=0  (3d)  (perturbative polarization orbital) (from 3p)
-------------------------------------------------------------------------------
L=0  Nkbl=1  erefs: 0.17977+309
L=1  Nkbl=1  erefs: 0.17977+309
L=2  Nkbl=1  erefs: 0.17977+309
===============================================================================
</basis_specs>

<pseudopotential_header>
 Cl pb nrl pcec
 ONCVPSP-3.2017-10-31Hamann's oncvpsp                        
 3s 2.00  r= 1.56/3p 5.00  r= 1.35/3d 0.00  r= 1.76/                    3s:3p:
</pseudopotential_header>
</preamble>
Cl                            # Symbol
Cl                            # Label
   17                         # Atomic number
     7.00000000000                             # Valence charge
     35.4500000000        # Mass 
     57.9007963623        # Self energy 
   2   5                      # Lmax for basis, no. of nl orbitals 
   2   6                      # Lmax for projectors, no. of nl KB projectors
# PAOs:__________________________
  0  3  1  0  2.000000   #orbital l, n, z, is_polarized, population
 500    0.1050733481375834E-01     5.243160072065413     # npts, delta, cutoff
     0.000000000000000        0.1651784262894682    
    0.1050733481375834E-01    0.1653810727393080    
    0.2101466962751668E-01    0.1659944503395012    
    0.3152200444127502E-01    0.1670156338245628    
    0.4202933925503337E-01    0.1684429561341911    
    0.5253667406879171E-01    0.1702740918923898    
    0.6304400888255005E-01    0.1725060649704433    
    0.7355134369630839E-01    0.1751352584336912    
    0.8405867851006674E-01    0.1781574265506291    
    0.9456601332382508E-01    0.1815677087289999    
    0.1050733481375834        0.1853606452478946    
    0.1155806829513418        0.1895301946444061    
    0.1260880177651001        0.1940697526021954    
    0.1365953525788584        0.1989721721797126    
    0.1471026873926168        0.2042297852083744    
    0.1576100222063751        0.2098344246859271    
    0.1681173570201335        0.2157774479876245    
    0.1786246918338918        0.2220497607177349    
    0.1891320266476502        0.2286418410262464    
    0.1996393614614085        0.2355437642203702    
    0.2101466962751669        0.2427452275074847    
    0.2206540310889252        0.2502355747153113    
    0.2311613659026835        0.2580038208462467    
    0.2416687007164419        0.2660386763356348    
    0.2521760355302002        0.2743285708981307    
    0.2626833703439586        0.2828616768619387    
    0.2731907051577169        0.2916259319072553    
    0.2836980399714752        0.3006090611425130    
    0.2942053747852336        0.3097985984696209    
    0.3047127095989919        0.3191819072070485    
    0.3152200444127503        0.3287461999570102    
    0.3257273792265086        0.3384785577198808    
    0.3362347140402669        0.3483659482750028    
    0.3467420488540253        0.3583952438619037    
    0.3572493836677836        0.3685532382096201    
    0.3677567184815420        0.3788266629736725    
    0.3782640532953003        0.3892022036505852    
    0.3887713881090586        0.3996665150480001    
    0.3992787229228170        0.4102062363947633    
    0.4097860577365753        0.4208080061793492    
    0.4202933925503337        0.4314584768069167    
    0.4308007273640920        0.4421443291648997    
    0.4413080621778503        0.4528522871845636    
    0.4518153969916087        0.4635691324812800    
    0.4623227318053670        0.4742817191495772    
    0.4728300666191254        0.4849769887805958    
    0.4833374014328837        0.4956419857592428    
    0.4938447362466421        0.5062638728865702    
    0.5043520710604004        0.5168299473600367    
    0.5148594058741588        0.5273276571301048    
    0.5253667406879171        0.5377446176368503    
    0.5358740755016754        0.5480686289151051    
    0.5463814103154337        0.5582876930409758    
    0.5568887451291922        0.5683900318773942    
    0.5673960799429505        0.5783641050612671    
    0.5779034147567088        0.5881986281604924    
    0.5884107495704671        0.5978825909157820    
    0.5989180843842254        0.6074052754700323    
    0.6094254191979839        0.6167562744772441    
    0.6199327540117422        0.6259255089738881    
    0.6304400888255005        0.6349032458883225    
    0.6409474236392588        0.6436801150585686    
    0.6514547584530173        0.6522471256254527    
    0.6619620932667756        0.6605956816670391    
    0.6724694280805339        0.6687175969414533    
    0.6829767628942922        0.6766051086083146    
    0.6934840977080505        0.6842508898046807    
    0.7039914325218090        0.6916480609587008    
    0.7144987673355673        0.6987901997338777    
    0.7250061021493256        0.7056713495081207    
    0.7355134369630839        0.7122860263047077    
    0.7460207717768423        0.7186292241068754    
    0.7565281065906007        0.7246964185033229    
    0.7670354414043590        0.7304835686286745    
    0.7775427762181173        0.7359871173802260    
    0.7880501110318756        0.7412039899102373    
    0.7985574458456340        0.7461315904109073    
    0.8090647806593924        0.7507677972269917    
    0.8195721154731507        0.7551109563484992    
    0.8300794502869090        0.7591598733525603    
    0.8405867851006674        0.7629138038792395    
    0.8510941199144257        0.7663724427407038    
    0.8616014547281841        0.7695359117761218    
    0.8721087895419424        0.7724047465761408    
    0.8826161243557007        0.7749798822103957    
    0.8931234591694591        0.7772626380991107    
    0.9036307939832174        0.7792547021753844    
    0.9141381287969758        0.7809581144881926    
    0.9246454636107341        0.7823752503972954    
    0.9351527984244924        0.7835088035101955    
    0.9456601332382508        0.7843617685081816    
    0.9561674680520091        0.7849374240031595    
    0.9666748028657675        0.7852393155596542    
    0.9771821376795258        0.7852712390073747    
    0.9876894724932842        0.7850372241587049    
    0.9981968073070425        0.7845415190332904    
     1.008704142120801        0.7837885746783169    
     1.019211476934559        0.7827830306582080    
     1.029718811748318        0.7815297012723206    
     1.040226146562076        0.7800335625431406    
     1.050733481375834        0.7782997400011883    
     1.061240816189593        0.7763334972767643    
     1.071748151003351        0.7741402254930427    
     1.082255485817109        0.7717254334392154    
     1.092762820630867        0.7690947384883913    
     1.103270155444626        0.7662538582113972    
     1.113777490258384        0.7632086026254853    
     1.124284825072143        0.7599648670063371    
     1.134792159885901        0.7565286251747592    
     1.145299494699659        0.7529059245234168    
     1.155806829513418        0.7491028761060632    
     1.166314164327176        0.7451256525786504    
     1.176821499140934        0.7409804814203044    
     1.187328833954693        0.7366736391660809    
     1.197836168768451        0.7322114456413442    
     1.208343503582209        0.7276002580238972    
     1.218850838395968        0.7228464646509201    
     1.229358173209726        0.7179564784958625    
     1.239865508023484        0.7129367302503372    
     1.250372842837243        0.7077936609571557    
     1.260880177651001        0.7025337141527325    
     1.271387512464759        0.6971633274906098    
     1.281894847278518        0.6916889238315713    
     1.292402182092276        0.6861169018000167    
     1.302909516906035        0.6804536258201981    
     1.313416851719793        0.6747054156683665    
     1.323924186533551        0.6688785355596968    
     1.334431521347309        0.6629791828733305    
     1.344938856161068        0.6570134764858723    
     1.355446190974826        0.6509874450282177    
     1.365953525788584        0.6449070147846968    
     1.376460860602343        0.6387779978118776    
     1.386968195416101        0.6326060796586340    
     1.397475530229860        0.6263968077405402    
     1.407982865043618        0.6201555797374024    
     1.418490199857376        0.6138876325706605    
     1.428997534671135        0.6075980318166819    
     1.439504869484893        0.6012916616302478    
     1.450012204298651        0.5949732156897399    
     1.460519539112410        0.5886471888580133    
     1.471026873926168        0.5823178698297595    
     1.481534208739926        0.5759893348630410    
     1.492041543553685        0.5696654426408878    
     1.502548878367443        0.5633498303448483    
     1.513056213181201        0.5570459109583441    
     1.523563547994960        0.5507568717924779    
     1.534070882808718        0.5444856754252062    
     1.544578217622476        0.5382350606071594    
     1.555085552436235        0.5320075398839039    
     1.565592887249993        0.5258054105220359    
     1.576100222063751        0.5196307856246899    
     1.586607556877510        0.5134856315079663    
     1.597114891691268        0.5073717999216143    
     1.607622226505026        0.5012910389831690    
     1.618129561318785        0.4952449914473925    
     1.628636896132543        0.4892351982735807    
     1.639144230946301        0.4832631038933707    
     1.649651565760060        0.4773300601170690    
     1.660158900573818        0.4714373298519818    
     1.670666235387576        0.4655860907449682    
     1.681173570201335        0.4597774387409638    
     1.691680905015093        0.4540123915137467    
     1.702188239828851        0.4482918917681878    
     1.712695574642610        0.4426168104302874    
     1.723202909456368        0.4369879497254488    
     1.733710244270126        0.4314060461470474    
     1.744217579083885        0.4258717733188040    
     1.754724913897643        0.4203857447544138    
     1.765232248711401        0.4149485165169863    
     1.775739583525160        0.4095605897818164    
     1.786246918338918        0.4042224133048416    
     1.796754253152677        0.3989343858003282    
     1.807261587966435        0.3936968582299012    
     1.817768922780193        0.3885101360064226    
     1.828276257593952        0.3833744811147073    
     1.838783592407710        0.3782901141523998    
     1.849290927221468        0.3732572162930091    
     1.859798262035226        0.3682759311740942    
     1.870305596848985        0.3633463667127772    
     1.880812931662743        0.3584685968510944    
     1.891320266476502        0.3536426632336371    
     1.901827601290260        0.3488685768194091    
     1.912334936104018        0.3441463194307712    
     1.922842270917777        0.3394758452406454    
     1.933349605731535        0.3348570822013976    
     1.943856940545293        0.3302899334159294    
     1.954364275359052        0.3257742784546855    
     1.964871610172810        0.3213099746186344    
     1.975378944986568        0.3168968581517984    
     1.985886279800327        0.3125347454038925    
     1.996393614614085        0.3082234339456438    
     2.006900949427843        0.3039627036381126    
     2.017408284241601        0.2997523176576534    
     2.027915619055360        0.2955920234784910    
     2.038422953869119        0.2914815538138634    
     2.048930288682877        0.2874206275179619    
     2.059437623496635        0.2834089504494186    
     2.069944958310393        0.2794462162982902    
     2.080452293124152        0.2755321073776269    
     2.090959627937910        0.2716662953810160    
     2.101466962751668        0.2678484421074022    
     2.111974297565427        0.2640782001544186    
     2.122481632379185        0.2603552135812874    
     2.132988967192944        0.2566791185427488    
     2.143496302006702        0.2530495438947526    
     2.154003636820460        0.2494661117732751    
     2.164510971634218        0.2459284381472651    
     2.175018306447977        0.2424361333463890    
     2.185525641261735        0.2389888025652326    
     2.196032976075494        0.2355860463440537    
     2.206540310889252        0.2322274610276769    
     2.217047645703010        0.2289126392031125    
     2.227554980516769        0.2256411701164738    
     2.238062315330527        0.2224126400707660    
     2.248569650144285        0.2192266328043529    
     2.259076984958043        0.2160827298516413    
     2.269584319771802        0.2129805108864324    
     2.280091654585560        0.2099195540482657    
     2.290598989399319        0.2068994362532822    
     2.301106324213077        0.2039197334893282    
     2.311613659026835        0.2009800210964965    
     2.322120993840594        0.1980798740337007    
     2.332628328654352        0.1952188671313569    
     2.343135663468110        0.1923965753314648    
     2.353642998281869        0.1896125739150467    
     2.364150333095627        0.1868664387176047    
     2.374657667909385        0.1841577463333594    
     2.385165002723144        0.1814860743083241    
     2.395672337536902        0.1788510013229913    
     2.406179672350660        0.1762521073649882    
     2.416687007164419        0.1736889738920117    
     2.427194341978177        0.1711611839856409    
     2.437701676791936        0.1686683224962835    
     2.448209011605694        0.1662099761796700    
     2.458716346419452        0.1637857338252841    
     2.469223681233210        0.1613951863770560    
     2.479731016046969        0.1590379270466609    
     2.490238350860727        0.1567135514197182    
     2.500745685674485        0.1544216575552691    
     2.511253020488244        0.1521618460787564    
     2.521760355302002        0.1499337202688045    
     2.532267690115761        0.1477368861381579    
     2.542775024929519        0.1455709525089073    
     2.553282359743277        0.1434355310823366    
     2.563789694557035        0.1413302365036805    
     2.574297029370794        0.1392546864218860    
     2.584804364184552        0.1372085015447113    
     2.595311698998310        0.1351913056893915    
     2.605819033812069        0.1332027258289593    
     2.616326368625827        0.1312423921345269    
     2.626833703439586        0.1293099380137034    
     2.637341038253344        0.1274050001452636    
     2.647848373067102        0.1255272185103115    
     2.658355707880860        0.1236762364200846    
     2.668863042694619        0.1218517005405388    
     2.679370377508377        0.1200532609138922    
     2.689877712322136        0.1182805709772572    
     2.700385047135894        0.1165332875785206    
     2.710892381949652        0.1148110709895879    
     2.721399716763411        0.1131135849171158    
     2.731907051577169        0.1114404965108913    
     2.742414386390927        0.1097914763699429    
     2.752921721204685        0.1081661985464866    
     2.763429056018444        0.1065643405478676    
     2.773936390832202        0.1049855833365542    
     2.784443725645961        0.1034296113282823    
     2.794951060459719        0.1018961123884874    
     2.805458395273477        0.1003847778270736    
     2.815965730087236        0.9889530239162049E-01
     2.826473064900994        0.9742738425911611E-01
     2.836980399714752        0.9598072502629133E-01
     2.847487734528511        0.9455502969862839E-01
     2.857995069342269        0.9315000667812268E-01
     2.868502404156027        0.9176536774986370E-01
     2.879009738969786        0.9040082806750444E-01
     2.889517073783544        0.8905610613768769E-01
     2.900024408597302        0.8773092380344236E-01
     2.910531743411061        0.8642500622662391E-01
     2.921039078224819        0.8513808186970961E-01
     2.931546413038578        0.8386988247648190E-01
     2.942053747852336        0.8262014305213826E-01
     2.952561082666094        0.8138860184224253E-01
     2.963068417479852        0.8017500031159587E-01
     2.973575752293611        0.7897908312291803E-01
     2.984083087107369        0.7780059811454325E-01
     2.994590421921127        0.7663929627480254E-01
     3.005097756734886        0.7549493171982101E-01
     3.015605091548644        0.7436726166337934E-01
     3.026112426362403        0.7325604640693742E-01
     3.036619761176161        0.7216104930455758E-01
     3.047127095989919        0.7108203674520469E-01
     3.057634430803677        0.7001877811733824E-01
     3.068141765617436        0.6897104577380767E-01
     3.078649100431194        0.6793861502810271E-01
     3.089156435244953        0.6692126411940114E-01
     3.099663770058711        0.6591877418370788E-01
     3.110171104872469        0.6493092922699166E-01
     3.120678439686228        0.6395751609824078E-01
     3.131185774499986        0.6299832446244086E-01
     3.141693109313744        0.6205314677326584E-01
     3.152200444127502        0.6112177824532841E-01
     3.162707778941261        0.6020401682648237E-01
     3.173215113755020        0.5929966317004223E-01
     3.183722448568778        0.5840852060693907E-01
     3.194229783382536        0.5753039511782274E-01
     3.204737118196294        0.5666509530511946E-01
     3.215244453010053        0.5581243236507260E-01
     3.225751787823811        0.5497222005979160E-01
     3.236259122637569        0.5414427468930838E-01
     3.246766457451328        0.5332841506365529E-01
     3.257273792265086        0.5252446247497927E-01
     3.267781127078845        0.5173224066970392E-01
     3.278288461892603        0.5095157582074933E-01
     3.288795796706361        0.5018229649982070E-01
     3.299303131520119        0.4942423364978083E-01
     3.309810466333878        0.4867722055710934E-01
     3.320317801147636        0.4794109282446239E-01
     3.330825135961395        0.4721568834333550E-01
     3.341332470775153        0.4650084726685010E-01
     3.351839805588911        0.4579641198265919E-01
     3.362347140402670        0.4510222708598377E-01
     3.372854475216428        0.4441813935278823E-01
     3.383361810030186        0.4374399771310290E-01
     3.393869144843944        0.4307965322449779E-01
     3.404376479657703        0.4242495904570767E-01
     3.414883814471461        0.4177977041042587E-01
     3.425391149285220        0.4114394460126659E-01
     3.435898484098978        0.4051734092389907E-01
     3.446405818912736        0.3989982068135210E-01
     3.456913153726494        0.3929124714851197E-01
     3.467420488540253        0.3869148554680100E-01
     3.477927823354011        0.3810040301904898E-01
     3.488435158167770        0.3751786860454635E-01
     3.498942492981528        0.3694375321431040E-01
     3.509449827795286        0.3637792960654319E-01
     3.519957162609045        0.3582027236229531E-01
     3.530464497422803        0.3527065786132175E-01
     3.540971832236561        0.3472896425816496E-01
     3.551479167050319        0.3419507145843697E-01
     3.561986501864078        0.3366886109531772E-01
     3.572493836677836        0.3315021650625270E-01
     3.583001171491595        0.3263902270988666E-01
     3.593508506305353        0.3213516638320271E-01
     3.604015841119111        0.3163853583888396E-01
     3.614523175932870        0.3114902100287983E-01
     3.625030510746628        0.3066651339221170E-01
     3.635537845560386        0.3019090609299119E-01
     3.646045180374144        0.2972209373866253E-01
     3.656552515187903        0.2925997248845328E-01
     3.667059850001662        0.2880444000606489E-01
     3.677567184815420        0.2835539543858117E-01
     3.688074519629178        0.2791273939559914E-01
     3.698581854442936        0.2747637392857414E-01
     3.709089189256695        0.2704620251039554E-01
     3.719596524070453        0.2662213001519056E-01
     3.730103858884211        0.2620406269834372E-01
     3.740611193697970        0.2579190817673642E-01
     3.751118528511728        0.2538557540920327E-01
     3.761625863325487        0.2498497467722860E-01
     3.772133198139245        0.2459001756584751E-01
     3.782640532953003        0.2420061694477387E-01
     3.793147867766761        0.2381668694972901E-01
     3.803655202580520        0.2343814296401825E-01
     3.814162537394278        0.2306490160030562E-01
     3.824669872208037        0.2269688068261319E-01
     3.835177207021795        0.2233399922851546E-01
     3.845684541835553        0.2197617743157434E-01
     3.856191876649312        0.2162333664397522E-01
     3.866699211463070        0.2127539935937574E-01
     3.877206546276828        0.2093228919595932E-01
     3.887713881090586        0.2059393087969682E-01
     3.898221215904345        0.2026025022783140E-01
     3.908728550718103        0.1993117413255521E-01
     3.919235885531862        0.1960663054489918E-01
     3.929743220345620        0.1928654845880281E-01
     3.940250555159378        0.1897085789542150E-01
     3.950757889973137        0.1865948988761146E-01
     3.961265224786895        0.1835237646462091E-01
     3.971772559600653        0.1804945063696639E-01
     3.982279894414412        0.1775064638151351E-01
     3.992787229228170        0.1745589862675706E-01
     4.003294564041928        0.1716514323828363E-01
     4.013801898855687        0.1687831700443048E-01
     4.024309233669445        0.1659535762211231E-01
     4.034816568483203        0.1631620368286745E-01
     4.045323903296961        0.1604079465906808E-01
     4.055831238110720        0.1576907089031996E-01
     4.066338572924479        0.1550097357003551E-01
     4.076845907738237        0.1523644473218822E-01
     4.087353242551995        0.1497542723825707E-01
     4.097860577365753        0.1471786476433360E-01
     4.108367912179512        0.1446370178841121E-01
     4.118875246993270        0.1421288357782645E-01
     4.129382581807028        0.1396535617689738E-01
     4.139889916620787        0.1372106639471665E-01
     4.150397251434545        0.1347996179311218E-01
     4.160904586248304        0.1324199067477407E-01
     4.171411921062062        0.1300710207152881E-01
     4.181919255875820        0.1277524573280178E-01
     4.192426590689578        0.1254637211422002E-01
     4.202933925503337        0.1232043236637753E-01
     4.213441260317095        0.1209737832375024E-01
     4.223948595130853        0.1187716249376303E-01
     4.234455929944612        0.1165973804602189E-01
     4.244963264758370        0.1144505880168277E-01
     4.255470599572129        0.1123307922297429E-01
     4.265977934385887        0.1102375440285428E-01
     4.276485269199645        0.1081704005482246E-01
     4.286992604013403        0.1061289250287485E-01
     4.297499938827162        0.1041126867159297E-01
     4.308007273640921        0.1021212607637673E-01
     4.318514608454678        0.1001542281379837E-01
     4.329021943268437        0.9821117552111600E-02
     4.339529278082195        0.9629169521884402E-02
     4.350036612895954        0.9439538506762135E-02
     4.360543947709712        0.9252184834364787E-02
     4.371051282523470        0.9067069367295105E-02
     4.381558617337229        0.8884153494295820E-02
     4.392065952150987        0.8703399121518206E-02
     4.402573286964746        0.8524768663914127E-02
     4.413080621778503        0.8348225036752709E-02
     4.423587956592262        0.8173731647240206E-02
     4.434095291406020        0.8001252386279805E-02
     4.444602626219779        0.7830751620333237E-02
     4.455109961033537        0.7662194183398728E-02
     4.465617295847295        0.7495545369103822E-02
     4.476124630661054        0.7330770922896059E-02
     4.486631965474812        0.7167837034360408E-02
     4.497139300288571        0.7006710329634216E-02
     4.507646635102328        0.6847357863928828E-02
     4.518153969916087        0.6689747114157297E-02
     4.528661304729845        0.6533845971655395E-02
     4.539168639543604        0.6379622735015717E-02
     4.549675974357362        0.6227046103016171E-02
     4.560183309171120        0.6076085167645049E-02
     4.570690643984879        0.5926709407224791E-02
     4.581197978798637        0.5778888679624162E-02
     4.591705313612396        0.5632593215569666E-02
     4.602212648426153        0.5487793612049807E-02
     4.612719983239912        0.5344460825805746E-02
     4.623227318053670        0.5202566166913006E-02
     4.633734652867429        0.5062081292448141E-02
     4.644241987681188        0.4922978200240287E-02
     4.654749322494945        0.4785229222714890E-02
     4.665256657308704        0.4648807020813511E-02
     4.675763992122462        0.4513684577998308E-02
     4.686271326936221        0.4379835194336764E-02
     4.696778661749978        0.4247232480660343E-02
     4.707285996563737        0.4115850352810961E-02
     4.717793331377496        0.3985663025957299E-02
     4.728300666191254        0.3856645008987485E-02
     4.738808001005013        0.3728771098977330E-02
     4.749315335818770        0.3602016375754272E-02
     4.759822670632529        0.3476356202084162E-02
     4.770330005446287        0.3351766363073112E-02
     4.780837340260046        0.3228224117038507E-02
     4.791344675073804        0.3105711456634236E-02
     4.801852009887562        0.2984220693928554E-02
     4.812359344701321        0.2863760769806285E-02
     4.822866679515079        0.2744362391291817E-02
     4.833374014328838        0.2626080920661530E-02
     4.843881349142595        0.2508996853785951E-02
     4.854388683956354        0.2393214275913760E-02
     4.864896018770112        0.2278857880829069E-02
     4.875403353583871        0.2166069126193721E-02
     4.885910688397629        0.2055001994435237E-02
     4.896418023211387        0.1945818705111032E-02
     4.906925358025146        0.1838685613408095E-02
     4.917432692838904        0.1733769440903321E-02
     4.927940027652663        0.1631233919265512E-02
     4.938447362466420        0.1531236881660608E-02
     4.948954697280179        0.1433927805807907E-02
     4.959462032093938        0.1339445792923538E-02
     4.969969366907696        0.1247917954912181E-02
     4.980476701721454        0.1159458175684371E-02
     4.990984036535212        0.1074166209614110E-02
     5.001491371348971        0.9921270796192118E-03
     5.011998706162729        0.9134107382989110E-03
     5.022506040976488        0.8380719573776667E-03
     5.033013375790246        0.7661504129798420E-03
     5.043520710604004        0.6976709367197054E-03
     5.054028045417763        0.6326439050526424E-03
     5.064535380231521        0.5710657416453856E-03
     5.075042715045279        0.5129195095986302E-03
     5.085550049859037        0.4581755720728813E-03
     5.096057384672796        0.4067923011006966E-03
     5.106564719486554        0.3587168149194373E-03
     5.117072054300313        0.3138857236927666E-03
     5.127579389114071        0.2722258614127264E-03
     5.138086723927829        0.2336549769806275E-03
     5.148594058741588        0.1980823477780194E-03
     5.159101393555346        0.1654092599765346E-03
     5.169608728369104        0.1355292615682800E-03
     5.180116063182862        0.1083280133527930E-03
     5.190623397996621        0.8368237936989070E-04
     5.201130732810380        0.6145793366483307E-04
     5.211638067624138        0.4150269860213343E-04
     5.222145402437896        0.2363017818185537E-04
     5.232652737251654        0.7556827732138756E-05
     5.243160072065413         0.000000000000000    
  0  3  2  0  0.000000   #orbital l, n, z, is_polarized, population
 500    0.5987281551486543E-02     2.987653494191785     # npts, delta, cutoff
     0.000000000000000       -0.1302844485440419    
    0.5987281551486543E-02   -0.1301751948275352    
    0.1197456310297309E-01   -0.1298378233783164    
    0.1796184465445963E-01   -0.1292757310898754    
    0.2394912620594617E-01   -0.1284892146608635    
    0.2993640775743271E-01   -0.1274786873908405    
    0.3592368930891926E-01   -0.1262446796215460    
    0.4191097086040580E-01   -0.1247878382788377    
    0.4789825241189234E-01   -0.1231089261915789    
    0.5388553396337888E-01   -0.1212088212645838    
    0.5987281551486542E-01   -0.1190885155231397    
    0.6586009706635197E-01   -0.1167491140360789    
    0.7184737861783852E-01   -0.1141918337219946    
    0.7783466016932505E-01   -0.1114180020426757    
    0.8382194172081160E-01   -0.1084290555878515    
    0.8980922327229814E-01   -0.1052265385555071    
    0.9579650482378468E-01   -0.1018121011322418    
    0.1017837863752712       -0.9818749777838216E-01
    0.1077710679267578       -0.9435458542275928E-01
    0.1137583494782443       -0.9031532157227172E-01
    0.1197456310297308       -0.8607176234152354E-01
    0.1257329125812174       -0.8162606040798105E-01