<preamble>

<basis_specs>
===============================================================================
N                    Z=   7    Mass=  14.007        Charge= 0.17977+309
Lmxo=2 Lmxkb= 1    BasisType=split      Semic=F
L=0  Nsemic=0  Cnfigmx=2
          i=1  nzeta=2  polorb=0  (2s)
            splnorm:   0.15000    
               vcte:    40.000    
               rinn:    4.6160    
               qcoe:    0.0000    
               qyuk:    0.0000    
               qwid:   0.10000E-01
                rcs:    5.1289      2.7990    
            lambdas:    1.0000      1.0000    
L=1  Nsemic=0  Cnfigmx=2
          i=1  nzeta=2  polorb=1  (2p)  (to be polarized perturbatively)
            splnorm:   0.15000    
               vcte:    40.000    
               rinn:    5.9534    
               qcoe:    0.0000    
               qyuk:    0.0000    
               qwid:   0.10000E-01
                rcs:    6.6149      3.5824    
            lambdas:    1.0000      1.0000    
L=2  Nsemic=0  Cnfigmx=3
          i=1  nzeta=0  polorb=0  (3d)  (perturbative polarization orbital) (from 2p)
-------------------------------------------------------------------------------
L=0  Nkbl=1  erefs: 0.17977+309
L=1  Nkbl=1  erefs: 0.17977+309
===============================================================================
</basis_specs>

<pseudopotential_header>
 N  pb nrl pcec
 ONCVPSP-3.2017-10-31Hamann's oncvpsp                        
 2s 2.00  r= 1.21/2p 3.00  r= 1.36/                                     2s:2p:
</pseudopotential_header>
</preamble>
N                             # Symbol
N                             # Label
    7                         # Atomic number
     5.00000000000                             # Valence charge
     14.0070000000        # Mass 
     33.1744353808        # Self energy 
   2   5                      # Lmax for basis, no. of nl orbitals 
   1   4                      # Lmax for projectors, no. of nl KB projectors
# PAOs:__________________________
  0  2  1  0  2.000000   #orbital l, n, z, is_polarized, population
 500    0.1027826161053888E-01     5.128852543658899     # npts, delta, cutoff
     0.000000000000000        0.7143103265426763    
    0.1027826161053888E-01    0.7145228810631824    
    0.2055652322107775E-01    0.7151778438875555    
    0.3083478483161663E-01    0.7162676850640975    
    0.4111304644215550E-01    0.7177897545510831    
    0.5139130805269437E-01    0.7197403490560959    
    0.6166956966323325E-01    0.7221147162187980    
    0.7194783127377212E-01    0.7249070612591455    
    0.8222609288431100E-01    0.7281105554864106    
    0.9250435449484988E-01    0.7317173467277190    
    0.1027826161053887        0.7357185718153270    
    0.1130608777159276        0.7401043712953559    
    0.1233391393264665        0.7448639065308418    
    0.1336174009370054        0.7499853793750186    
    0.1438956625475442        0.7554560545881309    
    0.1541739241580831        0.7612622851628175    
    0.1644521857686220        0.7673895407097023    
    0.1747304473791609        0.7738224390360263    
    0.1850087089896998        0.7805447810265363    
    0.1952869706002386        0.7875395889076288    
    0.2055652322107775        0.7947891479431788    
    0.2158434938213164        0.8022750515746123    
    0.2261217554318553        0.8099782499784476    
    0.2364000170423941        0.8178791019732535    
    0.2466782786529330        0.8259574301646802    
    0.2569565402634719        0.8341925791734175    
    0.2672348018740108        0.8425634767467536    
    0.2775130634845496        0.8510486975112601    
    0.2877913250950885        0.8596265290823339    
    0.2980695867056274        0.8682750402070430    
    0.3083478483161662        0.8769721505804566    
    0.3186261099267051        0.8856957019432219    
    0.3289043715372440        0.8944235300402742    
    0.3391826331477829        0.9031335369975872    
    0.3494608947583218        0.9118037636565490    
    0.3597391563688606        0.9204124613941048    
    0.3700174179793995        0.9289381629514009    
    0.3802956795899384        0.9373597517950200    
    0.3905739412004772        0.9456565295421413    
    0.4008522028110161        0.9538082809950680    
    0.4111304644215550        0.9617953363505887    
    0.4214087260320939        0.9695986301757091    
    0.4316869876426327        0.9771997567729265    
    0.4419652492531716        0.9845810215947943    
    0.4522435108637105        0.9917254884088009    
    0.4625217724742494        0.9986170219584761    
    0.4728000340847883         1.005240325914861    
    0.4830782956953271         1.011580975962901    
    0.4933565573058660         1.017625447919333    
    0.5036348189164048         1.023361140831431    
    0.5139130805269437         1.028776395058461    
    0.5241913421374826         1.033860505389391    
    0.5344696037480215         1.038603729300110    
    0.5447478653585603         1.042997290500734    
    0.5550261269690993         1.047033377967439    
    0.5653043885796382         1.050705140693207    
    0.5755826501901770         1.054006678427362    
    0.5858609118007159         1.056933028704014    
    0.5961391734112548         1.059480150484417    
    0.6064174350217936         1.061644904757536    
    0.6166956966323325         1.063425032456038    
    0.6269739582428714         1.064819130052240    
    0.6372522198534103         1.065826623199589    
    0.6475304814639491         1.066447738780464    
    0.6578087430744880         1.066683475710716    
    0.6680870046850269         1.066535574835656    
    0.6783652662955657         1.066006488231624    
    0.6886435279061046         1.065099348202383    
    0.6989217895166435         1.063817936230907    
    0.7092000511271824         1.062166652115441    
    0.7194783127377212         1.060150483484472    
    0.7297565743482601         1.057774975849571    
    0.7400348359587990         1.055046203318244    
    0.7503130975693378         1.051970740052234    
    0.7605913591798767         1.048555632520333    
    0.7708696207904157         1.044808372559998    
    0.7811478824009545         1.040736871229192    
    0.7914261440114934         1.036349433399588    
    0.8017044056220323         1.031654733015482    
    0.8119826672325712         1.026661788919411    
    0.8222609288431100         1.021379941126572    
    0.8325391904536489         1.015818827415482    
    0.8428174520641878         1.009988360092613    
    0.8530957136747266         1.003898702807276    
    0.8633739752852655        0.9975602472706618    
    0.8736522368958044        0.9909835893735911    
    0.8839304985063432        0.9841795055382477    
    0.8942087601168821        0.9771589280915420    
    0.9044870217274210        0.9699329201440966    
    0.9147652833379599        0.9625126497725498    
    0.9250435449484987        0.9549093634499970    
    0.9353218065590376        0.9471343586964567    
    0.9456000681695765        0.9391989559505186    
    0.9558783297801153        0.9311144696937217    
    0.9661565913906542        0.9228921788901212    
    0.9764348530011931        0.9145432968346370    
    0.9867131146117321        0.9060789405338991    
    0.9969913762222709        0.8975100997721110    
     1.007269637832810        0.8888476060412620    
     1.017547899443349        0.8801021015389514    
     1.027826161053887        0.8712840084585077    
     1.038104422664426        0.8624034988125053    
     1.048382684274965        0.8534704650448782    
     1.058660945885504        0.8444944916952575    
     1.068939207496043        0.8354848283833107    
     1.079217469106582        0.8264503643804014    
     1.089495730717121        0.8173996050306198    
     1.099773992327660        0.8083406502733318    
     1.110052253938199        0.7992811755038877    
     1.120330515548737        0.7902284149907514    
     1.130608777159276        0.7811891480439209    
     1.140887038769815        0.7721696881018555    
     1.151165300380354        0.7631758748747903    
     1.161443561990893        0.7542130696497025    
     1.171721823601432        0.7452861537265317    
     1.182000085211971        0.7363995302818707    
     1.192278346822510        0.7275571316893551    
     1.202556608433048        0.7187624189060201    
     1.212834870043587        0.7100184048634985    
     1.223113131654126        0.7013277511966324    
     1.233391393264665        0.6926928866297104    
     1.243669654875204        0.6841160747545537    
     1.253947916485743        0.6755994140765114    
     1.264226178096282        0.6671448423577659    
     1.274504439706821        0.6587541469774456    
     1.284782701317359        0.6504289722871058    
     1.295060962927898        0.6421708266544152    
     1.305339224538437        0.6339810893700097    
     1.315617486148976        0.6258610172204582    
     1.325895747759515        0.6178117507270916    
     1.336174009370054        0.6098343201439480    
     1.346452270980593        0.6019296510889711    
     1.356730532591131        0.5940985700665491    
     1.367008794201670        0.5863418096207584    
     1.377287055812209        0.5786600133598793    
     1.387565317422748        0.5710537406260325    
     1.397843579033287        0.5635234707293141    
     1.408121840643826        0.5560696075896018    
     1.418400102254365        0.5486924835836280    
     1.428678363864904        0.5413923637439434    
     1.438956625475442        0.5341694492102723    
     1.449234887085981        0.5270238808076144    
     1.459513148696520        0.5199557425047384    
     1.469791410307059        0.5129650645835958    
     1.480069671917598        0.5060518267046499    
     1.490347933528137        0.4992159608350116    
     1.500626195138676        0.4924573540274705    
     1.510904456749215        0.4857758510703445    
     1.521182718359753        0.4791712570113620    
     1.531460979970292        0.4726433395605683    
     1.541739241580831        0.4661918313787648    
     1.552017503191370        0.4598164322556546    
     1.562295764801909        0.4535168111835096    
     1.572574026412448        0.4472926083304263    
     1.582852288022987        0.4411434369182711    
     1.593130549633526        0.4350688850092903    
     1.603408811244065        0.4290685172056324    
     1.613687072854603        0.4231418762658163    
     1.623965334465142        0.4172884846417610    
     1.634243596075681        0.4115078459401977    
     1.644521857686220        0.4057994463117474    
     1.654800119296759        0.4001627557710419    
     1.665078380907298        0.3945972294510373    
     1.675356642517837        0.3891023087944925    
     1.685634904128376        0.3836774226856200    
     1.695913165738914        0.3783219885243908    
     1.706191427349453        0.3730354132464536    
     1.716469688959992        0.3678170942908753    
     1.726747950570531        0.3626664205183964    
     1.737026212181070        0.3575827730821410    
     1.747304473791609        0.3525655262533400    
     1.757582735402148        0.3476140482038108    
     1.767860997012686        0.3427277017475139    
     1.778139258623225        0.3379058450427834    
     1.788417520233764        0.3331478322573389    
     1.798695781844303        0.3284530141975603    
     1.808974043454842        0.3238207389038935    
     1.819252305065381        0.3192503522138440    
     1.829530566675920        0.3147411982941089    
     1.839808828286459        0.3102926201433658    
     1.850087089896997        0.3059039600669285    
     1.860365351507536        0.3015745601248315    
     1.870643613118075        0.2973037625543031    
     1.880921874728614        0.2930909101681718    
     1.891200136339153        0.2889353467300358    
     1.901478397949692        0.2848364173075348    
     1.911756659560231        0.2807934686046105    
     1.922034921170770        0.2768058492738191    
     1.932313182781308        0.2728729102097242    
     1.942591444391847        0.2689940048240657    
     1.952869706002386        0.2651684893038570    
     1.963147967612925        0.2613957228529044    
     1.973426229223464        0.2576750679187233    
     1.983704490834003        0.2540058904023933    
     1.993982752444542        0.2503875598547453    
     2.004261014055081        0.2468194496627317    
     2.014539275665619        0.2433009372222042    
     2.024817537276158        0.2398314040946614    
     2.035095798886697        0.2364102361461011    
     2.045374060497236        0.2330368236957753    
     2.055652322107775        0.2297105616363634    
     2.065930583718314        0.2264308495446644    
     2.076208845328853        0.2231970918026888    
     2.086487106939392        0.2200086976936713    
     2.096765368549931        0.2168650814690292    
     2.107043630160470        0.2137656624478880    
     2.117321891771008        0.2107098650906073    
     2.127600153381547        0.2076971190619911    
     2.137878414992086        0.2047268592893675    
     2.148156676602625        0.2017985260160738    
     2.158434938213164        0.1989115648484765    
     2.168713199823703        0.1960654267966548    
     2.178991461434241        0.1932595683095532    
     2.189269723044780        0.1904934513049323    
     2.199547984655319        0.1877665431943569    
     2.209826246265858        0.1850783169034625    
     2.220104507876397        0.1824282508877753    
     2.230382769486936        0.1798158291443185    
     2.240661031097475        0.1772405412192334    
     2.250939292708014        0.1747018822116435    
     2.261217554318553        0.1721993527739636    
     2.271495815929091        0.1697324591088608    
     2.281774077539630        0.1673007129630499    
     2.292052339150169        0.1649036316181083    
     2.302330600760708        0.1625407378784857    
     2.312608862371247        0.1602115600568640    
     2.322887123981786        0.1579156319570335    
     2.333165385592324        0.1556524928544283    
     2.343443647202863        0.1534216874744619    
     2.353721908813402        0.1512227659688035    
     2.364000170423941        0.1490552838897184    
     2.374278432034480        0.1469188021625943    
     2.384556693645019        0.1448128870567737    
     2.394834955255558        0.1427371101548007    
     2.405113216866097        0.1406910483201850    
     2.415391478476636        0.1386742836637906    
     2.425669740087174        0.1366864035089338    
     2.435948001697713        0.1347270003552915    
     2.446226263308252        0.1327956718417000    
     2.456504524918791        0.1308920207079249    
     2.466782786529330        0.1290156547554894    
     2.477061048139869        0.1271661868076202    
     2.487339309750408        0.1253432346683972    
     2.497617571360947        0.1235464210811621    
     2.507895832971486        0.1217753736862558    
     2.518174094582025        0.1200297249781416    
     2.528452356192563        0.1183091122619761    
     2.538730617803102        0.1166131776096778    
     2.549008879413641        0.1149415678155455    
     2.559287141024180        0.1132939343514837    
     2.569565402634719        0.1116699333218672    
     2.579843664245258        0.1100692254181048    
     2.590121925855796        0.1084914758729330    
     2.600400187466335        0.1069363544144864    
     2.610678449076874        0.1054035352201755    
     2.620956710687413        0.1038926968704212    
     2.631234972297952        0.1024035223022635    
     2.641513233908491        0.1009356987628879    
     2.651791495519030        0.9948891776310007E-01
     2.662069757129569        0.9806287503077078E-01
     2.672348018740108        0.9665727046428166E-01
     2.682626280350646        0.9527180808600587E-01
     2.692904541961185        0.9390619599583865E-01
     2.703182803571724        0.9256014632479513E-01
     2.713461065182263        0.9123337518872346E-01
     2.723739326792802        0.8992560264212517E-01
     2.734017588403341        0.8863655263211040E-01
     2.744295850013879        0.8736595295252429E-01
     2.754574111624418        0.8611353519824139E-01
     2.764852373234957        0.8487903471964214E-01
     2.775130634845496        0.8366219057731186E-01
     2.785408896456035        0.8246274549695720E-01
     2.795687158066574        0.8128044582454709E-01
     2.805965419677113        0.8011504148171375E-01
     2.816243681287652        0.7896628592141584E-01
     2.826521942898191        0.7783393608386148E-01
     2.836800204508730        0.7671775235271938E-01
     2.847078466119268        0.7561749851163070E-01
     2.857356727729807        0.7453294170101384E-01
     2.867634989340346        0.7346385237517185E-01
     2.877913250950885        0.7241000425973892E-01
     2.888191512561424        0.7137117430944216E-01
     2.898469774171963        0.7034714266618215E-01
     2.908748035782502        0.6933769261747753E-01
     2.919026297393041        0.6834261055524500E-01
     2.929304559003580        0.6736168593492332E-01
     2.939582820614118        0.6639471123495450E-01
     2.949861082224657        0.6544148191663650E-01
     2.960139343835196        0.6450179638433202E-01
     2.970417605445735        0.6357545594602784E-01
     2.980695867056274        0.6266226477430013E-01
     2.990974128666813        0.6176202986763687E-01
     3.001252390277351        0.6087456101212616E-01
     3.011530651887890        0.5999967074353728E-01
     3.021808913498429        0.5913717430978481E-01
     3.032087175108968        0.5828688963376932E-01
     3.042365436719507        0.5744863727658391E-01
     3.052643698330046        0.5662224040114402E-01
     3.062921959940585        0.5580752473618218E-01
     3.073200221551124        0.5500431854061884E-01
     3.083478483161663        0.5421245256833618E-01
     3.093756744772201        0.5343176003334052E-01
     3.104035006382740        0.5266207657530676E-01
     3.114313267993279        0.5190324022548788E-01
     3.124591529603818        0.5115509137305154E-01
     3.134869791214357        0.5041747273177836E-01
     3.145148052824896        0.4969022930714150E-01
     3.155426314435434        0.4897320836377069E-01
     3.165704576045973        0.4826625939331630E-01
     3.175982837656512        0.4756923408268417E-01
     3.186261099267051        0.4688198628262748E-01
     3.196539360877590        0.4620437197675192E-01
     3.206817622488129        0.4553624925088325E-01
     3.217095884098668        0.4487747826281067E-01
     3.227374145709207        0.4422792121237811E-01
     3.237652407319746        0.4358744231199041E-01
     3.247930668930285        0.4295590775746203E-01
     3.258208930540823        0.4233318569923067E-01
     3.268487192151362        0.4171914621392830E-01
     3.278765453761901        0.4111366127633961E-01
     3.289043715372440        0.4051660473170281E-01
     3.299321976982979        0.3992785226835397E-01
     3.309600238593518        0.3934728139073965E-01
     3.319878500204057        0.3877477139278690E-01
     3.330156761814596        0.3821020333161441E-01
     3.340435023425135        0.3765346000156680E-01
     3.350713285035673        0.3710442590862379E-01
     3.360991546646212        0.3656298724513708E-01
     3.371269808256751        0.3602903186490658E-01
     3.381548069867290        0.3550244925856169E-01
     3.391826331477829        0.3498313052931477E-01
     3.402104593088368        0.3447096836902112E-01
     3.412382854698906        0.3396585703456932E-01
     3.422661116309445        0.3346769232456380E-01
     3.432939377919984        0.3297637155636981E-01
     3.443217639530523        0.3249179354344810E-01
     3.453495901141062        0.3201385857300945E-01
     3.463774162751601        0.3154246838394859E-01
     3.474052424362140        0.3107752614512733E-01
     3.484330685972679        0.3061893643393434E-01
     3.494608947583218        0.3016660521515157E-01
     3.504887209193756        0.2972043982008838E-01
     3.515165470804295        0.2928034892604987E-01
     3.525443732414834        0.2884624253606978E-01
     3.535721994025373        0.2841803195893758E-01
     3.546000255635912        0.2799562978948035E-01
     3.556278517246451        0.2757894988916227E-01
     3.566556778856989        0.2716790736694061E-01
     3.576835040467528        0.2676241856039888E-01
     3.587113302078067        0.2636240101712679E-01
     3.597391563688606        0.2596777347639674E-01
     3.607669825299145        0.2557845585109049E-01
     3.617948086909684        0.2519436920988706E-01
     3.628226348520223        0.2481543575969134E-01
     3.638504610130762        0.2444157882833060E-01
     3.648782871741301        0.2407272284750503E-01
     3.659061133351840        0.2370879333597600E-01
     3.669339394962378        0.2334971688299542E-01
     3.679617656572917        0.2299542113196861E-01
     3.689895918183456        0.2264583476437914E-01
     3.700174179793995        0.2230088748392751E-01
     3.710452441404534        0.2196051000090982E-01
     3.720730703015073        0.2162463401679915E-01
     3.731008964625611        0.2129319220909364E-01
     3.741287226236151        0.2096611821635839E-01
     3.751565487846690        0.2064334662349803E-01
     3.761843749457228        0.2032481294722264E-01
     3.772122011067767        0.2001045362175583E-01
     3.782400272678306        0.1970020598474040E-01
     3.792678534288845        0.1939400826335201E-01
     3.802956795899384        0.1909179956061174E-01
     3.813235057509923        0.1879351984189741E-01
     3.823513319120461        0.1849910992167285E-01
     3.833791580731000        0.1820851145039571E-01
     3.844069842341539        0.1792166690162752E-01
     3.854348103952078        0.1763851955931197E-01
     3.864626365562617        0.1735901350527424E-01
     3.874904627173156        0.1708309360688540E-01
     3.885182888783695        0.1681070550491516E-01
     3.895461150394234        0.1654179560155473E-01
     3.905739412004773        0.1627631104862238E-01
     3.916017673615311        0.1601419973595290E-01
     3.926295935225850        0.1575541027994727E-01
     3.936574196836389        0.1549989201229922E-01
     3.946852458446928        0.1524759496886995E-01
     3.957130720057467        0.1499846987875537E-01
     3.967408981668006        0.1475246815349921E-01
     3.977687243278545        0.1450954187647001E-01
     3.987965504889083        0.1426964379239030E-01
     3.998243766499622        0.1403272729701891E-01
     4.008522028110161        0.1379874642700098E-01
     4.018800289720700        0.1356765584985433E-01
     4.029078551331239        0.1333941085411187E-01
     4.039356812941778        0.1311396733959435E-01
     4.049635074552317        0.1289128180784594E-01
     4.059913336162856        0.1267131135270390E-01
     4.070191597773395        0.1245401365100584E-01
     4.080469859383934        0.1223934695343794E-01
     4.090748120994472        0.1202727007550335E-01
     4.101026382605011        0.1181774238864724E-01
     4.111304644215550        0.1161072381149807E-01
     4.121582905826089        0.1140617480124117E-01
     4.131861167436628        0.1120405634511807E-01
     4.142139429047167        0.1100432995204441E-01
     4.152417690657706        0.1080695764436665E-01
     4.162695952268244        0.1061190194972787E-01
     4.172974213878783        0.1041912589305708E-01
     4.183252475489322        0.1022859298867029E-01
     4.193530737099861        0.1004026723249020E-01
     4.203808998710400        0.9854113094384926E-02
     4.214087260320939        0.9670095510612023E-02
     4.224365521931477        0.9488179876376495E-02
     4.234643783542016        0.9308332038488817E-02
     4.244922045152555        0.9130518288138470E-02
     4.255200306763094        0.8954705353771662E-02
     4.265478568373633        0.8780860394068861E-02
     4.275756829984172        0.8608950991027136E-02
     4.286035091594711        0.8438945143134105E-02
     4.296313353205250        0.8270811258650432E-02
     4.306591614815789        0.8104518148985867E-02
     4.316869876426328        0.7940035022168827E-02
     4.327148138036867        0.7777331476412359E-02
     4.337426399647406        0.7616377493764384E-02
     4.347704661257944        0.7457143433858193E-02
     4.357982922868483        0.7299600027748911E-02
     4.368261184479022        0.7143718371836378E-02
     4.378539446089561        0.6989469921876388E-02
     4.388817707700100        0.6836826487070676E-02
     4.399095969310639        0.6685760224247632E-02
     4.409374230921177        0.6536243632123285E-02
     4.419652492531716        0.6388249545641437E-02
     4.429930754142255        0.6241751130395077E-02
     4.440209015752794        0.6096721877121479E-02
     4.450487277363333        0.5953135596277961E-02
     4.460765538973872        0.5810966412694281E-02
     4.471043800584410        0.5670188760296801E-02
     4.481322062194949        0.5530777376906417E-02
     4.491600323805488        0.5392707299107317E-02
     4.501878585416027        0.5255953857185316E-02
     4.512156847026566        0.5120492670140571E-02
     4.522435108637105        0.4986299640764105E-02
     4.532713370247644        0.4853350950782743E-02
     4.542991631858182        0.4721623056070452E-02
     4.553269893468721        0.4591092681920235E-02
     4.563548155079260        0.4461736818387474E-02
     4.573826416689800        0.4333532715690539E-02
     4.584104678300339        0.4206457879674133E-02
     4.594382939910878        0.4080490067334412E-02
     4.604661201521416        0.3955607282398762E-02
     4.614939463131955        0.3831787770970925E-02
     4.625217724742494        0.3709010017229563E-02
     4.635495986353033        0.3587252739183809E-02
     4.645774247963572        0.3466494884511981E-02
     4.656052509574111        0.3346715631673190E-02
     4.666330771184649        0.3227894522136507E-02
     4.676609032795188        0.3110012451499833E-02
     4.686887294405727        0.2993054744932286E-02
     4.697165556016266        0.2877016427751549E-02
     4.707443817626805        0.2761908186624770E-02
     4.717722079237344        0.2647761233931184E-02
     4.728000340847882        0.2534630058178897E-02
     4.738278602458421        0.2422592903497993E-02
     4.748556864068960        0.2311750340855719E-02
     4.758835125679499        0.2202222481013800E-02
     4.769113387290038        0.2094145367870873E-02
     4.779391648900577        0.1987666994121944E-02
     4.789669910511115        0.1882943265335934E-02
     4.799948172121654        0.1780134133994173E-02
     4.810226433732193        0.1679400041763079E-02
     4.820504695342732        0.1580898746662854E-02
     4.830782956953271        0.1484782568531099E-02
     4.841061218563810        0.1391196057134435E-02
     4.851339480174349        0.1300274068656068E-02
     4.861617741784888        0.1212140225060205E-02
     4.871896003395427        0.1126905724678522E-02
     4.882174265005966        0.1044668469610583E-02
     4.892452526616505        0.9655124749906869E-03
     4.902730788227044        0.8895075260201059E-03
     4.913009049837583        0.8167090503270899E-03
     4.923287311448121        0.7471581753211045E-03
     4.933565573058660        0.6808819424817933E-03
     4.943843834669199        0.6178936527956893E-03
     4.954122096279738        0.5581933196943462E-03
     4.964400357890277        0.5017682077514162E-03
     4.974678619500816        0.4485934369631123E-03
     4.984956881111354        0.3986326335373662E-03
     4.995235142721893        0.3518386085557149E-03
     5.005513404332432        0.3081540453269461E-03
     5.015791665942971        0.2675121741397895E-03
     5.026069927553510        0.2298374083594067E-03
     5.036348189164049        0.1950459062779243E-03
     5.046626450774587        0.1630460044470410E-03
     5.056904712385126        0.1337384307971186E-03
     5.067182973995665        0.1070161269930454E-03
     5.077461235606204        0.8276333019193635E-04
     5.087739497216743        0.6085311137313309E-04
     5.098017758827282        0.4114124062109605E-04
     5.108296020437820        0.2344962255440196E-04
     5.118574282048360        0.7505365127970215E-05
     5.128852543658899         0.000000000000000    
  0  2  2  0  0.000000   #orbital l, n, z, is_polarized, population
 500    0.5609225562899208E-02     2.799003555886705     # npts, delta, cutoff
     0.000000000000000        0.7291864114468662    
    0.5609225562899208E-02    0.7292783190100723    
    0.1121845112579842E-01    0.7295813535268175    
    0.1682767668869762E-01    0.7300861808148607    
    0.2243690225159683E-01    0.7307924352258117    
    0.2804612781449604E-01    0.7316996099475784    
    0.3365535337739525E-01    0.7328070544878944    
    0.3926457894029445E-01    0.7341139745485569    
    0.4487380450319366E-01    0.7356194322525266    
    0.5048303006609287E-01    0.7373223464992011    
    0.5609225562899208E-01    0.7392214934046782    
    0.6170148119189129E-01    0.7413155068171331    
    0.6731070675479049E-01    0.7436028789058936    
    0.7291993231768970E-01    0.7460819608256233    
    0.7852915788058891E-01    0.7487509634580988    
    0.8413838344348812E-01    0.7516079582346664    
    0.8974760900638733E-01    0.7546508780427843    
    0.9535683456928654E-01    0.7578775182202522    
    0.1009660601321857        0.7612855376408780    
    0.1065752856950850        0.7648724598954622    
    0.1121845112579842        0.7686356745719833    
    0.1177937368208834        0.7725724386389259    