<preamble>

<basis_specs>
===============================================================================
O                    Z=   8    Mass=  15.999        Charge= 0.17977+309
Lmxo=2 Lmxkb= 2    BasisType=split      Semic=F
L=0  Nsemic=0  Cnfigmx=2
          i=1  nzeta=2  polorb=0  (2s)
            splnorm:   0.15000    
               vcte:    40.000    
               rinn:    4.1135    
               qcoe:    0.0000    
               qyuk:    0.0000    
               qwid:   0.10000E-01
                rcs:    4.5660      2.4345    
            lambdas:    1.0000      1.0000    
L=1  Nsemic=0  Cnfigmx=2
          i=1  nzeta=2  polorb=1  (2p)  (to be polarized perturbatively)
            splnorm:   0.15000    
               vcte:    40.000    
               rinn:    5.3270    
               qcoe:    0.0000    
               qyuk:    0.0000    
               qwid:   0.10000E-01
                rcs:    5.9129      3.1038    
            lambdas:    1.0000      1.0000    
L=2  Nsemic=0  Cnfigmx=3
          i=1  nzeta=0  polorb=0  (3d)  (perturbative polarization orbital) (from 2p)
-------------------------------------------------------------------------------
L=0  Nkbl=1  erefs: 0.17977+309
L=1  Nkbl=1  erefs: 0.17977+309
L=2  Nkbl=1  erefs: 0.17977+309
===============================================================================
</basis_specs>

<pseudopotential_header>
 O  pb nrl pcec
 ONCVPSP-3.2017-10-31Hamann's oncvpsp                        
 2s 2.00  r= 1.36/2p 4.00  r= 1.46/3d 0.00  r= 1.26/                    2s:2p:
</pseudopotential_header>
</preamble>
O                             # Symbol
O                             # Label
    8                         # Atomic number
     6.00000000000                             # Valence charge
     15.9990000000        # Mass 
     48.1918910330        # Self energy 
   2   5                      # Lmax for basis, no. of nl orbitals 
   2   5                      # Lmax for projectors, no. of nl KB projectors
# PAOs:__________________________
  0  2  1  0  2.000000   #orbital l, n, z, is_polarized, population
 500    0.9150342417449789E-02     4.566020866307444     # npts, delta, cutoff
     0.000000000000000         1.359876306021222    
    0.9150342417449789E-02     1.359895536782700    
    0.1830068483489958E-01     1.359993788989487    
    0.2745102725234937E-01     1.360157001237293    
    0.3660136966979916E-01     1.360384343925535    
    0.4575171208724894E-01     1.360674662313069    
    0.5490205450469873E-01     1.361026476285421    
    0.6405239692214852E-01     1.361437982890795    
    0.7320273933959831E-01     1.361907059790092    
    0.8235308175704810E-01     1.362431269418023    
    0.9150342417449789E-01     1.363007863817598    
    0.1006537665919477         1.363633790140495    
    0.1098041090093975         1.364305696812970    
    0.1189544514268473         1.365019940369008    
    0.1281047938442970         1.365772592952427    
    0.1372551362617468         1.366559450489194    
    0.1464054786791966         1.367376041530002    
    0.1555558210966464         1.368217636761839    
    0.1647061635140962         1.369079259185596    
    0.1738565059315460         1.369955694954586    
    0.1830068483489958         1.370841504866828    
    0.1921571907664456         1.371731036501153    
    0.2013075331838954         1.372618436984671    
    0.2104578756013452         1.373497666376026    
    0.2196082180187949         1.374362511645747    
    0.2287585604362447         1.375206601231727    
    0.2379089028536945         1.376023420144370    
    0.2470592452711443         1.376806325592463    
    0.2562095876885941         1.377548563097253    
    0.2653599301060439         1.378243283058465    
    0.2745102725234937         1.378883557732648    
    0.2836606149409435         1.379462398580461    
    0.2928109573583932         1.379972773936268    
    0.3019612997758430         1.380407626949968    
    0.3111116421932928         1.380759893748019    
    0.3202619846107426         1.381022521757606    
    0.3294123270281924         1.381188488135367    
    0.3385626694456422         1.381250818239622    
    0.3477130118630920         1.381202604083249    
    0.3568633542805418         1.381037022702386    
    0.3660136966979916         1.380747354375240    
    0.3751640391154413         1.380327000624023    
    0.3843143815328911         1.379769501932961    
    0.3934647239503409         1.379068555115029    
    0.4026150663677907         1.378218030260792    
    0.4117654087852405         1.377211987203364    
    0.4209157512026903         1.376044691435222    
    0.4300660936201401         1.374710629414128    
    0.4392164360375899         1.373204523197998    
    0.4483667784550396         1.371521344351077    
    0.4575171208724894         1.369656327067209    
    0.4666674632899392         1.367604980459151    
    0.4758178057073890         1.365363099967509    
    0.4849681481248388         1.362926777846313    
    0.4941184905422886         1.360292412687751    
    0.5032688329597383         1.357456717952812    
    0.5124191753771882         1.354416729480047    
    0.5215695177946380         1.351169811950083    
    0.5307198602120877         1.347713664288704    
    0.5398702026295376         1.344046323997170    
    0.5490205450469874         1.340166170404156    
    0.5581708874644371         1.336071926839048    
    0.5673212298818869         1.331762661732440    
    0.5764715722993367         1.327237788654816    
    0.5856219147167865         1.322497065310126    
    0.5947722571342363         1.317540591506203    
    0.6039225995516860         1.312368806128835    
    0.6130729419691359         1.306982483151335    
    0.6222232843865856         1.301382726715851    
    0.6313736268040354         1.295570965326846    
    0.6405239692214852         1.289548945200962    
    0.6496743116389350         1.283318722820970    
    0.6588246540563848         1.276882656744475    
    0.6679749964738346         1.270243398720607    
    0.6771253388912843         1.263403884170085    
    0.6862756813087342         1.256367322085742    
    0.6954260237261840         1.249137184411708    
    0.7045763661436337         1.241717194960251    
    0.7137267085610836         1.234111317925598    
    0.7228770509785333         1.226323745923469    
    0.7320273933959831         1.218358917079114    
    0.7411777358134329         1.210221416452510    
    0.7503280782308827         1.201916047565716    
    0.7594784206483325         1.193447794231473    
    0.7686287630657822         1.184821806505937    
    0.7777791054832320         1.176043387973301    
    0.7869294479006819         1.167117983060942    
    0.7960797903181316         1.158051164428935    
    0.8052301327355814         1.148848620474487    
    0.8143804751530312         1.139516142988450    
    0.8235308175704810         1.130059614997583    
    0.8326811599879308         1.120484998822667    
    0.8418315024053806         1.110798324378840    
    0.8509818448228303         1.101005677740930    
    0.8601321872402802         1.091113189992957    
    0.8692825296577299         1.081127026377334    
    0.8784328720751797         1.071053375755987    
    0.8875832144926296         1.060898440392225    
    0.8967335569100793         1.050668426059070    
    0.9058838993275291         1.040369532476874    
    0.9150342417449788         1.030007944080327    
    0.9241845841624287         1.019589821112512    
    0.9333349265798785         1.009121291041531    
    0.9424852689973282        0.9986084402932461    
    0.9516356114147780        0.9880573062921779    
    0.9607859538322279        0.9774738698012092    
    0.9699362962496776        0.9668640475498136    
    0.9790866386671274        0.9562336851398013    
    0.9882369810845772        0.9455885502172104    
    0.9973873235020270        0.9349343258987761    
     1.006537665919477        0.9242766044417050    
     1.015688008336927        0.9136208811457618    
     1.024838350754376        0.9029725484775750    
     1.033988693171826        0.8923368904076866    
     1.043139035589276        0.8817190769520575    
     1.052289378006726        0.8711241589111259    
     1.061439720424175        0.8605570628010775    
     1.070590062841625        0.8500225859726543    
     1.079740405259075        0.8395253919155468    
     1.088890747676525        0.8290700057474846    
     1.098041090093975        0.8186608098890676    
     1.107191432511424        0.8083020399264197    
     1.116341774928874        0.7979977806664217    
     1.125492117346324        0.7877519623903187    
     1.134642459763774        0.7775683573126589    
     1.143792802181224        0.7674505762545460    
     1.152943144598673        0.7574020655411781    
     1.162093487016123        0.7474261041343848    
     1.171243829433573        0.7375258010123708    
     1.180394171851023        0.7277040928092640    
     1.189544514268473        0.7179637417270830    
     1.198694856685922        0.7083073337340754    
     1.207845199103372        0.6987372770626142    
     1.216995541520822        0.6892558010195182    
     1.226145883938272        0.6798649551220852    
     1.235296226355721        0.6705666085716373    
     1.244446568773171        0.6613624500760160    
     1.253596911190621        0.6522539880310237    
     1.262747253608071        0.6432425510698208    
     1.271897596025521        0.6343292889878970    
     1.281047938442970        0.6255151740488348    
     1.290198280860420        0.6168010026755497    
     1.299348623277870        0.6081873975288269    
     1.308498965695320        0.5996748099727441    
     1.317649308112770        0.5912635227987101    
     1.326799650530219        0.5829536536077162    
     1.335949992947669        0.5747451599220278    
     1.345100335365119        0.5666378398248472    
     1.354250677782569        0.5586313324903486    
     1.363401020200019        0.5507251415416450    
     1.372551362617468        0.5429186759873885    
     1.381701705034918        0.5352112928165197    
     1.390852047452368        0.5276023248202186    
     1.400002389869818        0.5200910812924870    
     1.409152732287267        0.5126768442813630    
     1.418303074704717        0.5053588718560916    
     1.427453417122167        0.4981364008101128    
     1.436603759539617        0.4910086482575637    
     1.445754101957067        0.4839748132649130    
     1.454904444374516        0.4770340785776334    
     1.464054786791966        0.4701856120183407    
     1.473205129209416        0.4634285681054447    
     1.482355471626866        0.4567620894687140    
     1.491505814044316        0.4501853077205785    
     1.500656156461765        0.4436973450612990    
     1.509806498879215        0.4372973155158701    
     1.518956841296665        0.4309843258127548    
     1.528107183714115        0.4247574765092819    
     1.537257526131564        0.4186158629733988    
     1.546407868549014        0.4125585763047555    
     1.555558210966464        0.4065847042067288    
     1.564708553383914        0.4006933318108342    
     1.573858895801364        0.3948835424526708    
     1.583009238218813        0.3891544184024843    
     1.592159580636263        0.3835050415530232    
     1.601309923053713        0.3779344940662323    
     1.610460265471163        0.3724418589813879    
     1.619610607888613        0.3670262207859485    
     1.628760950306062        0.3616866659516502    
     1.637911292723512        0.3564222834369028    
     1.647061635140962        0.3512321651577170    
     1.656211977558412        0.3461154064282101    
     1.665362319975862        0.3410711063736753    
     1.674512662393311        0.3360983683143526    
     1.683663004810761        0.3311963001223127    
     1.692813347228211        0.3263640145600468    
     1.701963689645661        0.3216006295952629    
     1.711114032063110        0.3169052686844065    
     1.720264374480560        0.3122770610337977    
     1.729414716898010        0.3077151418624400    
     1.738565059315460        0.3032186526233789    
     1.747715401732910        0.2987867412026825    
     1.756865744150359        0.2944185621639649    
     1.766016086567809        0.2901132768710520    
     1.775166428985259        0.2858700536650208    
     1.784316771402709        0.2816880680271048    
     1.793467113820159        0.2775665027099070    
     1.802617456237608        0.2735045478557114    
     1.811767798655058        0.2695014011073059    
     1.820918141072508        0.2655562677074139    
     1.830068483489958        0.2616683605863425    
     1.839218825907408        0.2578369004390780    
     1.848369168324857        0.2540611157927118    
     1.857519510742307        0.2503402430646297    
     1.866669853159757        0.2466735266119455    
     1.875820195577207        0.2430602187726862    
     1.884970537994656        0.2394995798991776    
     1.894120880412106        0.2359908783840869    
     1.903271222829556        0.2325333906795388    
     1.912421565247006        0.2291264013096967    
     1.921571907664456        0.2257692028772100    
     1.930722250081905        0.2224610960638646    
     1.939872592499355        0.2192013896257988    
     1.949022934916805        0.2159894003836040    
     1.958173277334255        0.2128244532076193    
     1.967323619751705        0.2097058809987240    
     1.976473962169154        0.2066330246648965    
     1.985624304586604        0.2036052330938149    
     1.994774647004054        0.2006218631217512    
     2.003924989421504        0.1976822794989963    
     2.013075331838953        0.1947858548520486    
     2.022225674256403        0.1919319696427749    
     2.031376016673853        0.1891200121247640    
     2.040526359091303        0.1863493782970523    
     2.049676701508753        0.1836194718554143    
     2.058827043926203        0.1809297041413985    
     2.067977386343652        0.1782794940892662    
     2.077127728761102        0.1756682681709947    
     2.086278071178552        0.1730954603395002    
     2.095428413596002        0.1705605119702163    
     2.104578756013451        0.1680628718011612    
     2.113729098430901        0.1656019958716323    
     2.122879440848351        0.1631773474596352    
     2.132029783265801        0.1607883970181714    
     2.141180125683251        0.1584346221104916    
     2.150330468100700        0.1561155073444108    
     2.159480810518150        0.1538305443057932    
     2.168631152935600        0.1515792314912902    
     2.177781495353050        0.1493610742404193    
     2.186931837770500        0.1471755846670742    
     2.196082180187950        0.1450222815905307    
     2.205232522605399        0.1429006904660346    
     2.214382865022849        0.1408103433150318    
     2.223533207440298        0.1387507786551108    
     2.232683549857748        0.1367215414297178    
     2.241833892275198        0.1347221829377044    
     2.250984234692648        0.1327522607627592    
     2.260134577110098        0.1308113387027766    
     2.269284919527548        0.1288989866992199    
     2.278435261944997        0.1270147807665044    
     2.287585604362447        0.1251583029214677    
     2.296735946779897        0.1233291411129524    
     2.305886289197347        0.1215268891515415    
     2.315036631614797        0.1197511466394859    
     2.324186974032246        0.1180015189008629    
     2.333337316449696        0.1162776169119759    
     2.342487658867146        0.1145790572320528    
     2.351638001284596        0.1129054619342559    
     2.360788343702045        0.1112564585370225    
     2.369938686119495        0.1096316799357766    
     2.379089028536945        0.1080307643350284    
     2.388239370954395        0.1064533551808710    
     2.397389713371845        0.1048991010939090    
     2.406540055789295        0.1033676558026398    
     2.415690398206744        0.1018586780772816    
     2.424840740624194        0.1003718316640849    
     2.433991083041644        0.9890678522014523E-01
     2.443141425459094        0.9746321224870684E-01
     2.452291767876543        0.9604079103498493E-01
     2.461442110293993        0.9463920458252985E-01
     2.470592452711443        0.9325814055012209E-01
     2.479742795128893        0.9189729118920102E-01
     2.488893137546342        0.9055635328187919E-01
     2.498043479963792        0.8923502807950767E-01
     2.507193822381242        0.8793302124179443E-01
     2.516344164798692        0.8665004277653342E-01
     2.525494507216142        0.8538580697990288E-01
     2.534644849633592        0.8414003237733864E-01
     2.543795192051041        0.8291244166501859E-01
     2.552945534468491        0.8170276165194068E-01
     2.562095876885941        0.8051072320259284E-01
     2.571246219303390        0.7933606118021853E-01
     2.580396561720840        0.7817851439070880E-01
     2.589546904138290        0.7703782552708745E-01
     2.598697246555740        0.7591374111458188E-01
     2.607847588973190        0.7480601145634022E-01
     2.616997931390640        0.7371439057973829E-01
     2.626148273808089        0.7263863618328112E-01
     2.635298616225539        0.7157850958412680E-01
     2.644448958642989        0.7053377566622152E-01
     2.653599301060439        0.6950420282903080E-01
     2.662749643477889        0.6848956293685712E-01
     2.671899985895339        0.6748963126879962E-01
     2.681050328312788        0.6650418646929278E-01
     2.690200670730238        0.6553301049922686E-01
     2.699351013147688        0.6457588858769088E-01
     2.708501355565137        0.6363260918430425E-01
     2.717651697982587        0.6270296391213154E-01
     2.726802040400037        0.6178674752116842E-01
     2.735952382817487        0.6088375784245077E-01
     2.745102725234937        0.5999379574272217E-01
     2.754253067652387        0.5911666507966304E-01
     2.763403410069836        0.5825217265771736E-01
     2.772553752487286        0.5740012818448732E-01
     2.781704094904736        0.5656034422768843E-01
     2.790854437322186        0.5573263617264139E-01
     2.800004779739635        0.5491682218036782E-01
     2.809155122157085        0.5411272314621350E-01
     2.818305464574535        0.5332016265901328E-01
     2.827455806991985        0.5253896696080228E-01
     2.836606149409434        0.5176896490708768E-01
     2.845756491826884        0.5100998792764116E-01
     2.854906834244334        0.5026186998779700E-01
     2.864057176661784        0.4952444755031436E-01
     2.873207519079234        0.4879755953774457E-01
     2.882357861496684        0.4808104729531777E-01
     2.891508203914133        0.4737475455430500E-01
     2.900658546331583        0.4667852739594325E-01
     2.909808888749033        0.4599221421582733E-01
     2.918959231166482        0.4531566568880089E-01
     2.928109573583932        0.4464873473432026E-01
     2.937259916001382        0.4399127648234408E-01
     2.946410258418832        0.4334314823967691E-01
     2.955560600836282        0.4270420945678102E-01
     2.964710943253732        0.4207432169506135E-01
     2.973861285671181        0.4145334859463558E-01
     2.983011628088631        0.4084115584254720E-01
     2.992161970506081        0.4023761114141761E-01
     3.001312312923531        0.3964258417856704E-01
     3.010462655340981        0.3905594659558165E-01
     3.019612997758431        0.3847757195831452E-01
     3.028763340175880        0.3790733572729614E-01
     3.037913682593330        0.3734511522860418E-01
     3.047064025010780        0.3679078962514956E-01
     3.056214367428229        0.3624423988837860E-01
     3.065364709845679        0.3570534877036324E-01
     3.074515052263129        0.3517400077633440E-01
     3.083665394680579        0.3465008213760489E-01
     3.092815737098029        0.3413348078489264E-01
     3.101966079515478        0.3362408632200963E-01
     3.111116421932928        0.3312178999997451E-01
     3.120266764350378        0.3262648469149516E-01
     3.129417106767828        0.3213806486582996E-01
     3.138567449185278        0.3165642656399869E-01
     3.147717791602727        0.3118146737439245E-01
     3.156868134020177        0.3071308640873670E-01
     3.166018476437627        0.3025118427841300E-01
     3.175168818855077        0.2979566307111545E-01
     3.184319161272526        0.2934642632787587E-01
     3.193469503689976        0.2890337902043489E-01
     3.202619846107426        0.2846642752894491E-01
     3.211770188524876        0.2803547961999958E-01
     3.220920530942326        0.2761044442499559E-01
     3.230070873359776        0.2719123241883896E-01
     3.239221215777225        0.2677775539895486E-01
     3.248371558194675        0.2636992646461709E-01
     3.257521900612125        0.2596765999657305E-01
     3.266672243029574        0.2557087163701356E-01
     3.275822585447024        0.2517947826981837E-01
     3.284972927864474        0.2479339800111281E-01
     3.294123270281924        0.2441255014009112E-01
     3.303273612699374        0.2403685518017412E-01
     3.312423955116824        0.2366623478042626E-01
     3.321574297534273        0.2330061174726489E-01
     3.330724639951723        0.2293991001642641E-01
     3.339874982369173        0.2258405463523304E-01
     3.349025324786623        0.2223297174512165E-01
     3.358175667204073        0.2188658856443657E-01
     3.367326009621523        0.2154483337148051E-01
     3.376476352038972        0.2120763548781885E-01
     3.385626694456422        0.2087492526186165E-01
     3.394777036873871        0.2054663405267680E-01
     3.403927379291321        0.2022269421406001E-01
     3.413077721708771        0.1990303907882480E-01
     3.422228064126221        0.1958760294336754E-01
     3.431378406543671        0.1927632105244786E-01
     3.440528748961121        0.1896912958420814E-01
     3.449679091378570        0.1866596563541043E-01
     3.458829433796020        0.1836676720690723E-01
     3.467979776213470        0.1807147318934280E-01
     3.477130118630920        0.1778002334906135E-01
     3.486280461048370        0.1749235831423861E-01
     3.495430803465819        0.1720841956120403E-01
     3.504581145883269        0.1692814940100468E-01
     3.513731488300719        0.1665149096615492E-01
     3.522881830718169        0.1637838819759422E-01
     3.532032173135618        0.1610878583183694E-01
     3.541182515553068        0.1584262938832029E-01
     3.550332857970518        0.1557986515695780E-01
     3.559483200387968        0.1532044018587003E-01
     3.568633542805418        0.1506430226931080E-01
     3.577783885222868        0.1481139993575818E-01
     3.586934227640317        0.1456168243621383E-01
     3.596084570057767        0.1431509973266684E-01
     3.605234912475217        0.1407160248673427E-01
     3.614385254892666        0.1383114204847792E-01
     3.623535597310116        0.1359367044537501E-01
     3.632685939727566        0.1335914037148405E-01
     3.641836282145016        0.1312750517675687E-01
     3.650986624562466        0.1289871885651830E-01
     3.660136966979915        0.1267273604110092E-01
     3.669287309397365        0.1244951198563672E-01
     3.678437651814815        0.1222900256001379E-01
     3.687587994232265        0.1201116423897509E-01
     3.696738336649715        0.1179595409237185E-01
     3.705888679067165        0.1158332977555405E-01
     3.715039021484614        0.1137324951991714E-01
     3.724189363902064        0.1116567212358948E-01
     3.733339706319514        0.1096055694225632E-01
     3.742490048736963        0.1075786388012569E-01
     3.751640391154413        0.1055755338101790E-01
     3.760790733571863        0.1035958641960508E-01
     3.769941075989313        0.1016392449277384E-01
     3.779091418406763        0.9970529611117053E-02
     3.788241760824213        0.9779364290555734E-02
     3.797392103241662        0.9590391544074173E-02
     3.806542445659112        0.9403574873594861E-02
     3.815692788076562        0.9218878261964670E-02
     3.824843130494012        0.9036266165061126E-02
     3.833993472911462        0.8855703504017787E-02
     3.843143815328911        0.8677155657554366E-02
     3.852294157746361        0.8500588454435500E-02
     3.861444500163811        0.8325968166031154E-02
     3.870594842581261        0.8153261498988025E-02
     3.879745184998710        0.7982435588010650E-02
     3.888895527416160        0.7813457988738382E-02
     3.898045869833610        0.7646296670740713E-02
     3.907196212251060        0.7480920010606310E-02
     3.916346554668510        0.7317296785133595E-02
     3.925496897085960        0.7155396164622602E-02
     3.934647239503409        0.6995187706254923E-02
     3.943797581920859        0.6836641347581779E-02
     3.952947924338309        0.6679727400098578E-02
     3.962098266755758        0.6524416542913082E-02
     3.971248609173208        0.6370679816505570E-02
     3.980398951590658        0.6218488616572039E-02
     3.989549294008108        0.6067814687962964E-02
     3.998699636425558        0.5918630118704972E-02
     4.007849978843008        0.5770907334106793E-02
     4.017000321260458        0.5624619090949110E-02
     4.026150663677907        0.5479738471753621E-02
     4.035301006095357        0.5336238879134424E-02
     4.044451348512807        0.5194094030230440E-02
     4.053601690930257        0.5053277951212382E-02
     4.062752033347707        0.4913764971867074E-02
     4.071902375765156        0.4775529720256961E-02
     4.081052718182606        0.4638547117449386E-02
     4.090203060600055        0.4502792372325693E-02
     4.099353403017505        0.4368240976455744E-02
     4.108503745434955        0.4234868699043997E-02
     4.117654087852405        0.4102651581944767E-02
     4.126804430269854        0.3971565934740890E-02
     4.135954772687304        0.3841588329894879E-02
     4.145105115104754        0.3712695598600509E-02
     4.154255457522204        0.3584864862553144E-02
     4.163405799939654        0.3458073973141688E-02
     4.172556142357104        0.3332303456808963E-02
     4.181706484774553        0.3207540769024020E-02
     4.190856827192003        0.3083786025563070E-02
     4.200007169609453        0.2961057427789460E-02
     4.209157512026903        0.2839394995970964E-02
     4.218307854444353        0.2718862101646921E-02
     4.227458196861803        0.2599544958192287E-02
     4.236608539279252        0.2481550543965071E-02
     4.245758881696702        0.2365003494894194E-02
     4.254909224114152        0.2250042438642313E-02
     4.264059566531602        0.2136816134866235E-02
     4.273209908949052        0.2025479678844130E-02
     4.282360251366502        0.1916190936022071E-02
     4.291510593783951        0.1809107306602465E-02
     4.300660936201401        0.1704382870164685E-02
     4.309811278618850        0.1602165926666932E-02
     4.318961621036300        0.1502596928151644E-02
     4.328111963453750        0.1405806781800968E-02
     4.337262305871200        0.1311915497122900E-02
     4.346412648288649        0.1221031146103759E-02
     4.355562990706099        0.1133249103808008E-02
     4.364713333123549        0.1048651537190203E-02
     4.373863675540999        0.9673071111568340E-03
     4.383014017958449        0.8892708827420231E-03
     4.392164360375899        0.8145843563354028E-03
     4.401314702793348        0.7432756750194106E-03
     4.410465045210798        0.6753599250988213E-03
     4.419615387628248        0.6108395327194421E-03
     4.428765730045698        0.5497047329748694E-03
     4.437916072463148        0.4919340929720523E-03
     4.447066414880597        0.4374950707886959E-03
     4.456216757298047        0.3863445918304183E-03
     4.465367099715497        0.3384296222902086E-03
     4.474517442132947        0.2936877153272482E-03
     4.483667784550397        0.2520474975044427E-03
     4.492818126967847        0.2134290475230390E-03
     4.501968469385296        0.1777440890994964E-03
     4.511118811802746        0.1448958584680235E-03
     4.520269154220196        0.1147783737985480E-03
     4.529419496637646        0.8727451715132616E-04
     4.538569839055095        0.6225148665001938E-04
     4.547720181472545        0.3954943030776368E-04
     4.556870523889994        0.1894734948500294E-04
     4.566020866307444         0.000000000000000    
  0  2  2  0  0.000000   #orbital l, n, z, is_polarized, population
 500    0.4878704662067147E-02     2.434473626371506     # npts, delta, cutoff
     0.000000000000000         1.627247429182402    
    0.4878704662067147E-02     1.627242157679400    
    0.9757409324134294E-02     1.627288319245512    
    0.1463611398620144E-01     1.627365215564347    
    0.1951481864826859E-01     1.627472734138266    
    0.2439352331033574E-01     1.627610730293388    
    0.2927222797240288E-01     1.627779020177764    
    0.3415093263447003E-01     1.627977379850802    
    0.3902963729653718E-01     1.628205545153753    
    0.4390834195860432E-01     1.628463211771306    
    0.4878704662067147E-01     1.628750035366336    
    0.5366575128273861E-01     1.629065631755663    
    0.5854445594480576E-01     1.629409577116159    
    0.6342316060687291E-01     1.629781408217140    
    0.6830186526894005E-01     1.630180622677321    
    0.7318056993100720E-01     1.630606679245617    
    0.7805927459307435E-01     1.631058998105412    
    0.8293797925514150E-01     1.631536961202149    
    0.8781668391720865E-01     1.632039912594206    
    0.9269538857927580E-01     1.632567158827042    
    0.9757409324134295E-01     1.633117969330650    
    0.1024527979034101         1.633691576840317    