Executable      : siesta
Version         : 5.2.1
Architecture    : x86_64
Compiler version: GNU-13.3.0
Compiler flags  : -march=nocona -mtune=haswell -ftree-vectorize -fPIC -fstack-protector-strong -fno-plt -O2 -ffunction-sections -pipe -isystem <prefix>/include -I<prefix>/_build_env/include -fdebug-prefix-map=<prefix>/work=/usr/local/src/conda/siesta-5.2.1 -fdebug-prefix-map=<prefix>=/usr/local/src/conda-prefix -I<prefix>/lib -fallow-argument-mismatch -O3
Parallelisations: none
NetCDF support
NetCDF-4 support
Lua support
DFT-D3 support

Runtime information:
* Directory : /home/samba/homes/convidat/Desktop/Exemples_Siesta/modibenze/run
* Running in serial mode.
>> Start of run:  15-MAY-2025  12:25:01

                           *********************** 
                           *  WELCOME TO SIESTA  * 
                           *********************** 

 NOTE: Siesta V5 introduces some new defaults for basis-set generation
 NOTE: which might lead to slightly different numerical results.
 NOTE: Please see the manual for full details and compatibility measures.


reinit: Reading from file optimization.fdf

reinit: -----------------------------------------------------------------------
reinit: System Name: 
reinit: -----------------------------------------------------------------------
reinit: System Label: optimization
reinit: -----------------------------------------------------------------------

initatom: Reading input for the pseudopotentials and atomic orbitals ----------
Species number:   1 Atomic number:    6 Label: C
Species number:   2 Atomic number:    7 Label: N
Species number:   3 Atomic number:    1 Label: H
Species number:   4 Atomic number:   17 Label: Cl
Species number:   5 Atomic number:    8 Label: O

Ground state valence configuration (from tables):   2s02  2p02  3d00  4f00
Ground state valence configuration (from tables):   2s02  2p03  3d00  4f00
Ground state valence configuration (from tables):   1s01  2p00  3d00  4f00
Ground state valence configuration (from tables):   3s02  3p05  3d00  4f00
Ground state valence configuration (from tables):   2s02  2p04  3d00  4f00

---- Processing specs for species: C
Reading pseudopotential information in PSML from:
  C.psml
PSML file version: 1.1
Using libxc ids:  101 130
GGA--PBE XC_GGA_X_PBE--XC_GGA_C_PBE pb
PSML uuid: 297821e0-be41-11e7-6802-e1ff7dfff095

---- Processing specs for species: N
Reading pseudopotential information in PSML from:
  N.psml
PSML file version: 1.1
Using libxc ids:  101 130
GGA--PBE XC_GGA_X_PBE--XC_GGA_C_PBE pb
PSML uuid: 31bde650-be41-11e7-78a7-66593edf4b14

---- Processing specs for species: H
Reading pseudopotential information in PSML from:
  H.psml
PSML file version: 1.1
Using libxc ids:  101 130
GGA--PBE XC_GGA_X_PBE--XC_GGA_C_PBE pb
PSML uuid: f95fa9b0-be40-11e7-634a-9594ffff953f

---- Processing specs for species: Cl
Reading pseudopotential information in PSML from:
  Cl.psml
PSML file version: 1.1
Using libxc ids:  101 130
GGA--PBE XC_GGA_X_PBE--XC_GGA_C_PBE pb
PSML uuid: 9ab3dd40-be41-11e7-6c4a-ab88bfef78d9

---- Processing specs for species: O
Reading pseudopotential information in PSML from:
  O.psml
PSML file version: 1.1
Using libxc ids:  101 130
GGA--PBE XC_GGA_X_PBE--XC_GGA_C_PBE pb
PSML uuid: 3cff85a0-be41-11e7-6c5c-1b1fe64d18ef

---- Pseudopotential check for C 

Pseudized shells:
2s( 2.00) rc: 1.20
2p( 2.00) rc: 1.26
Valence configuration for ps generation: 2s:2p: Total charge:   4.000000

---- Pseudopotential check for N 

Pseudized shells:
2s( 2.00) rc: 1.21
2p( 3.00) rc: 1.36
Valence configuration for ps generation: 2s:2p: Total charge:   5.000000

---- Pseudopotential check for H 

Pseudized shells:
1s( 1.00) rc: 1.01
2p( 0.00) rc: 0.71
Valence configuration for ps generation: 1s: Total charge:   1.000000

---- Pseudopotential check for Cl

Pseudized shells:
3s( 2.00) rc: 1.56
3p( 5.00) rc: 1.35
3d( 0.00) rc: 1.76
Valence configuration for ps generation: 3s:3p: Total charge:   7.000000

---- Pseudopotential check for O 

Pseudized shells:
2s( 2.00) rc: 1.36
2p( 4.00) rc: 1.46
3d( 0.00) rc: 1.26
Valence configuration for ps generation: 2s:2p: Total charge:   6.000000
For C, standard SIESTA heuristics set lmxkb to 3
 (one more than the basis l, including polarization orbitals).
Use PS.lmax or PS.KBprojectors blocks to override.
For N, standard SIESTA heuristics set lmxkb to 3
 (one more than the basis l, including polarization orbitals).
Use PS.lmax or PS.KBprojectors blocks to override.
For H, standard SIESTA heuristics set lmxkb to 2
 (one more than the basis l, including polarization orbitals).
Use PS.lmax or PS.KBprojectors blocks to override.
For Cl, standard SIESTA heuristics set lmxkb to 3
 (one more than the basis l, including polarization orbitals).
Use PS.lmax or PS.KBprojectors blocks to override.
For O, standard SIESTA heuristics set lmxkb to 3
 (one more than the basis l, including polarization orbitals).
Use PS.lmax or PS.KBprojectors blocks to override.
C pseudopotential only contains V_ls up to l=1 -- lmxkb reset.
N pseudopotential only contains V_ls up to l=1 -- lmxkb reset.
H pseudopotential only contains V_ls up to l=1 -- lmxkb reset.
Cl pseudopotential only contains V_ls up to l=2 -- lmxkb reset.
O pseudopotential only contains V_ls up to l=2 -- lmxkb reset.

<basis_specs>
===============================================================================
C                    Z=   6    Mass=  12.011        Charge= 0.17977+309
Lmxo=2 Lmxkb= 1    BasisType=split      Semic=F
L=0  Nsemic=0  Cnfigmx=2
          i=1  nzeta=2  polorb=0  (2s)
            splnorm:   0.15000    
               vcte:    40.000    
               rinn:  -0.90000    
               qcoe:    0.0000    
               qyuk:    0.0000    
               qwid:   0.10000E-01
                rcs:    0.0000      0.0000    
            lambdas:    1.0000      1.0000    
L=1  Nsemic=0  Cnfigmx=2
          i=1  nzeta=2  polorb=1  (2p)  (to be polarized perturbatively)
            splnorm:   0.15000    
               vcte:    40.000    
               rinn:  -0.90000    
               qcoe:    0.0000    
               qyuk:    0.0000    
               qwid:   0.10000E-01
                rcs:    0.0000      0.0000    
            lambdas:    1.0000      1.0000    
L=2  Nsemic=0  Cnfigmx=3
          i=1  nzeta=0  polorb=0  (3d)  (perturbative polarization orbital) (from 2p)
-------------------------------------------------------------------------------
L=0  Nkbl=1  erefs: 0.17977+309
L=1  Nkbl=1  erefs: 0.17977+309
===============================================================================
</basis_specs>

Using PAO.SplitTailNorm
atom: Called for C                     (Z =   6)
NOTE: C pseudopotential has channels up to l= 1
NOTE: PAOs with higher l will be generated with V_local
Maximum radius (at nrval) set to   50.00000 8518

read_vps: Pseudopotential generation method:
read_vps: ONCVPSP-3.Hamann's oncvpsp                        
Valence charge in pseudo generation:    4.00000

read_vps: Pseudopotential includes a core correction:
read_vps: Pseudo-core for xc-correction

xc_check: Exchange-correlation functional:
xc_check: GGA Perdew, Burke & Ernzerhof 1996
Got Vlocal (oncv-fit) from psml data
Choosing vlocal chloc cutoff:  4.122282
qtot up to nchloc:    4.00001153
atom: Maximum radius for chlocal:    4.12228
atom: Maximum radius for r*vlocal+2*Zval:    4.12228
Reading KB projs from C psml data
Using scalar-relativistic projectors in PSML file

PSML: Kleinman-Bylander projectors: 
   l= 0   rc=  1.219773   Ekb= 12.963096
   l= 0   rc=  1.219773   Ekb=  0.771007
   l= 1   rc=  1.278952   Ekb= -8.399923
   l= 1   rc=  1.278952   Ekb= -1.755033

PSML: Total number of  Kleinman-Bylander projectors:   8
atom: -------------------------------------------------------------------------

atom: SANKEY-TYPE ORBITALS:
atom: Selected multiple-zeta basis: split     

SPLIT: Orbitals with angular momentum L= 0

SPLIT: Basis orbitals for state 2s

SPLIT: PAO cut-off radius determined from an
SPLIT: energy shift=  0.000735 Ry
Split based on tail norm

   izeta = 1
                 lambda =    1.000000
                     rc =    5.865727
                 energy =   -1.009782
                kinetic =    0.907850
    potential(screened) =   -1.917632
       potential(ionic) =   -5.443189

   izeta = 2
                 rmatch =    3.302919
              splitnorm =    0.150000
                 energy =   -0.812047
                kinetic =    1.580868
    potential(screened) =   -2.392915
       potential(ionic) =   -6.200698

SPLIT: Orbitals with angular momentum L= 1

SPLIT: Basis orbitals for state 2p

SPLIT: PAO cut-off radius determined from an
SPLIT: energy shift=  0.000735 Ry
Split based on tail norm

   izeta = 1
                 lambda =    1.000000
                     rc =    7.564822
                 energy =   -0.387582
                kinetic =    2.372253
    potential(screened) =   -2.759835
       potential(ionic) =   -6.120604

   izeta = 2
                 rmatch =    4.252389
              splitnorm =    0.150000
                 energy =   -0.314961
                kinetic =    3.225377
    potential(screened) =   -3.540338
       potential(ionic) =   -7.207912
*Note: V_local used for l= 2

** Using vlocal for PAOs with L= 2

POLgen: Perturbative polarization orbital with L=  2

POLgen: Polarization orbital for state 2p
*Note: V_local used for lpol= 2

** Using vlocal for PAOs with L= 2
Split based on tail norm

   izeta = 1
                     rc =    7.564822
                 energy =    0.923681
                kinetic =    1.875515
    potential(screened) =   -0.951834
       potential(ionic) =   -3.587740
atom: Total number of Sankey-type orbitals: 13

atm_pop: Valence configuration (for local Pseudopot. screening):
 2s( 2.00)                                                            
 2p( 2.00)                                                            
 3d( 0.00)                                                            
Vna: chval, zval:    4.00000   4.00000

Vna:  Cut-off radius for the neutral-atom potential:   7.564822
comcore: Pseudo-core radius Rcore=  1.671741

atom: _________________________________________________________________________

<basis_specs>
===============================================================================
N                    Z=   7    Mass=  14.007        Charge= 0.17977+309
Lmxo=2 Lmxkb= 1    BasisType=split      Semic=F
L=0  Nsemic=0  Cnfigmx=2
          i=1  nzeta=2  polorb=0  (2s)
            splnorm:   0.15000    
               vcte:    40.000    
               rinn:  -0.90000    
               qcoe:    0.0000    
               qyuk:    0.0000    
               qwid:   0.10000E-01
                rcs:    0.0000      0.0000    
            lambdas:    1.0000      1.0000    
L=1  Nsemic=0  Cnfigmx=2
          i=1  nzeta=2  polorb=1  (2p)  (to be polarized perturbatively)
            splnorm:   0.15000    
               vcte:    40.000    
               rinn:  -0.90000    
               qcoe:    0.0000    
               qyuk:    0.0000    
               qwid:   0.10000E-01
                rcs:    0.0000      0.0000    
            lambdas:    1.0000      1.0000    
L=2  Nsemic=0  Cnfigmx=3
          i=1  nzeta=0  polorb=0  (3d)  (perturbative polarization orbital) (from 2p)
-------------------------------------------------------------------------------
L=0  Nkbl=1  erefs: 0.17977+309
L=1  Nkbl=1  erefs: 0.17977+309
===============================================================================
</basis_specs>

Using PAO.SplitTailNorm
atom: Called for N                     (Z =   7)
NOTE: N pseudopotential has channels up to l= 1
NOTE: PAOs with higher l will be generated with V_local
Maximum radius (at nrval) set to   50.00000 8518

read_vps: Pseudopotential generation method:
read_vps: ONCVPSP-3.Hamann's oncvpsp                        
Valence charge in pseudo generation:    5.00000

read_vps: Pseudopotential includes a core correction:
read_vps: Pseudo-core for xc-correction

xc_check: Exchange-correlation functional:
xc_check: GGA Perdew, Burke & Ernzerhof 1996
Got Vlocal (oncv-fit) from psml data
Choosing vlocal chloc cutoff:  6.038618
qtot up to nchloc:    4.99995109
atom: Maximum radius for chlocal:    6.03862
atom: Maximum radius for r*vlocal+2*Zval:    6.03862
Reading KB projs from N psml data
Using scalar-relativistic projectors in PSML file

PSML: Kleinman-Bylander projectors: 
   l= 0   rc=  1.214864   Ekb= 14.989018
   l= 0   rc=  1.221004   Ekb=  1.272610
   l= 1   rc=  1.375180   Ekb= -8.587810
   l= 1   rc=  1.375180   Ekb= -2.013976

PSML: Total number of  Kleinman-Bylander projectors:   8
atom: -------------------------------------------------------------------------

atom: SANKEY-TYPE ORBITALS:
atom: Selected multiple-zeta basis: split     

SPLIT: Orbitals with angular momentum L= 0

SPLIT: Basis orbitals for state 2s

SPLIT: PAO cut-off radius determined from an
SPLIT: energy shift=  0.000735 Ry
Split based on tail norm

   izeta = 1
                 lambda =    1.000000
                     rc =    5.128853
                 energy =   -1.364951
                kinetic =    1.219328
    potential(screened) =   -2.584278
       potential(ionic) =   -8.061064

   izeta = 2
                 rmatch =    2.799004
              splitnorm =    0.150000
                 energy =   -1.108465
                kinetic =    2.068776
    potential(screened) =   -3.177241
       potential(ionic) =   -9.112461

SPLIT: Orbitals with angular momentum L= 1

SPLIT: Basis orbitals for state 2p

SPLIT: PAO cut-off radius determined from an
SPLIT: energy shift=  0.000735 Ry
Split based on tail norm

   izeta = 1
                 lambda =    1.000000
                     rc =    6.614864
                 energy =   -0.520217
                kinetic =    3.392575
    potential(screened) =   -3.912792
       potential(ionic) =   -9.170860

   izeta = 2
                 rmatch =    3.582433
              splitnorm =    0.150000
                 energy =   -0.423250
                kinetic =    4.550527
    potential(screened) =   -4.973778
       potential(ionic) =  -10.717060
*Note: V_local used for l= 2

** Using vlocal for PAOs with L= 2

POLgen: Perturbative polarization orbital with L=  2

POLgen: Polarization orbital for state 2p
*Note: V_local used for lpol= 2

** Using vlocal for PAOs with L= 2
Split based on tail norm

   izeta = 1
                     rc =    6.614864
                 energy =    1.365983
                kinetic =    2.607373
    potential(screened) =   -1.241390
       potential(ionic) =   -5.257349
atom: Total number of Sankey-type orbitals: 13

atm_pop: Valence configuration (for local Pseudopot. screening):
 2s( 2.00)                                                            
 2p( 3.00)                                                            
 3d( 0.00)                                                            
Vna: chval, zval:    5.00000   5.00000

Vna:  Cut-off radius for the neutral-atom potential:   6.614864
comcore: Pseudo-core radius Rcore=  1.572221

atom: _________________________________________________________________________

<basis_specs>
===============================================================================
H                    Z=   1    Mass=  1.0080        Charge= 0.17977+309
Lmxo=1 Lmxkb= 1    BasisType=split      Semic=F
L=0  Nsemic=0  Cnfigmx=1
          i=1  nzeta=2  polorb=1  (1s)  (to be polarized perturbatively)
            splnorm:   0.15000    
               vcte:    40.000    
               rinn:  -0.90000    
               qcoe:    0.0000    
               qyuk:    0.0000    
               qwid:   0.10000E-01
                rcs:    0.0000      0.0000    
            lambdas:    1.0000      1.0000    
L=1  Nsemic=0  Cnfigmx=2
          i=1  nzeta=0  polorb=0  (2p)  (perturbative polarization orbital) (from 1s)
-------------------------------------------------------------------------------
L=0  Nkbl=1  erefs: 0.17977+309
L=1  Nkbl=1  erefs: 0.17977+309
===============================================================================
</basis_specs>

Using PAO.SplitTailNorm
atom: Called for H                     (Z =   1)
Maximum radius (at nrval) set to   50.00000 8518

read_vps: Pseudopotential generation method:
read_vps: ONCVPSP-3.Hamann's oncvpsp                        
Valence charge in pseudo generation:    1.00000

xc_check: Exchange-correlation functional:
xc_check: GGA Perdew, Burke & Ernzerhof 1996
Got Vlocal (oncv-fit) from psml data
Choosing vlocal chloc cutoff:  1.926399
qtot up to nchloc:    0.99999831
atom: Maximum radius for chlocal:    1.92640
atom: Maximum radius for r*vlocal+2*Zval:    1.92640
Reading KB projs from H psml data
Using scalar-relativistic projectors in PSML file

PSML: Kleinman-Bylander projectors: 
   l= 0   rc=  1.022342   Ekb= -3.402247
   l= 0   rc=  1.022342   Ekb= -1.068968
   l= 1   rc=  0.714575   Ekb= -1.006642

PSML: Total number of  Kleinman-Bylander projectors:   5
atom: -------------------------------------------------------------------------

atom: SANKEY-TYPE ORBITALS:
atom: Selected multiple-zeta basis: split     

SPLIT: Orbitals with angular momentum L= 0

SPLIT: Basis orbitals for state 1s

SPLIT: PAO cut-off radius determined from an
SPLIT: energy shift=  0.000735 Ry
Split based on tail norm

   izeta = 1
                 lambda =    1.000000
                     rc =    7.238756
                 energy =   -0.476315
                kinetic =    0.887622
    potential(screened) =   -1.363936
       potential(ionic) =   -1.882865

   izeta = 2
                 rmatch =    4.044510
              splitnorm =    0.150000
                 energy =   -0.376652
                kinetic =    1.480380
    potential(screened) =   -1.857033
       potential(ionic) =   -2.405174

POLgen: Perturbative polarization orbital with L=  1

POLgen: Polarization orbital for state 1s
Split based on tail norm

   izeta = 1
                     rc =    7.238756
                 energy =    0.508786
                kinetic =    1.081322
    potential(screened) =   -0.572537
       potential(ionic) =   -1.035092
atom: Total number of Sankey-type orbitals:  5

atm_pop: Valence configuration (for local Pseudopot. screening):
 1s( 1.00)                                                            
 2p( 0.00)                                                            
Vna: chval, zval:    1.00000   1.00000

Vna:  Cut-off radius for the neutral-atom potential:   7.238756

atom: _________________________________________________________________________

<basis_specs>
===============================================================================
Cl                   Z=  17    Mass=  35.450        Charge= 0.17977+309
Lmxo=2 Lmxkb= 2    BasisType=split      Semic=F
L=0  Nsemic=0  Cnfigmx=3
          i=1  nzeta=2  polorb=0  (3s)
            splnorm:   0.15000    
               vcte:    40.000    
               rinn:  -0.90000    
               qcoe:    0.0000    
               qyuk:    0.0000    
               qwid:   0.10000E-01
                rcs:    0.0000      0.0000    
            lambdas:    1.0000      1.0000    
L=1  Nsemic=0  Cnfigmx=3
          i=1  nzeta=2  polorb=1  (3p)  (to be polarized perturbatively)
            splnorm:   0.15000    
               vcte:    40.000    
               rinn:  -0.90000    
               qcoe:    0.0000    
               qyuk:    0.0000    
               qwid:   0.10000E-01
                rcs:    0.0000      0.0000    
            lambdas:    1.0000      1.0000    
L=2  Nsemic=0  Cnfigmx=3
          i=1  nzeta=0  polorb=0  (3d)  (perturbative polarization orbital) (from 3p)
-------------------------------------------------------------------------------
L=0  Nkbl=1  erefs: 0.17977+309
L=1  Nkbl=1  erefs: 0.17977+309
L=2  Nkbl=1  erefs: 0.17977+309
===============================================================================
</basis_specs>

Using PAO.SplitTailNorm
atom: Called for Cl                    (Z =  17)
Maximum radius (at nrval) set to   50.00000 8518

read_vps: Pseudopotential generation method:
read_vps: ONCVPSP-3.Hamann's oncvpsp                        
Valence charge in pseudo generation:    7.00000

read_vps: Pseudopotential includes a core correction:
read_vps: Pseudo-core for xc-correction

xc_check: Exchange-correlation functional:
xc_check: GGA Perdew, Burke & Ernzerhof 1996
Got Vlocal (oncv-fit) from psml data
Choosing vlocal chloc cutoff:  6.008450
qtot up to nchloc:    7.00001052
atom: Maximum radius for chlocal:    6.00845
atom: Maximum radius for r*vlocal+2*Zval:    6.00845
Reading KB projs from Cl psml data
Using scalar-relativistic projectors in PSML file

PSML: Kleinman-Bylander projectors: 
   l= 0   rc=  1.578563   Ekb= 16.278592
   l= 0   rc=  1.580152   Ekb=  1.397440
   l= 1   rc=  1.368271   Ekb=  7.643426
   l= 1   rc=  1.368271   Ekb=  2.215037
   l= 2   rc=  1.779310   Ekb= -5.877217
   l= 2   rc=  1.779310   Ekb= -1.610911

PSML: Total number of  Kleinman-Bylander projectors:  18
atom: -------------------------------------------------------------------------

atom: SANKEY-TYPE ORBITALS:
atom: Selected multiple-zeta basis: split     

SPLIT: Orbitals with angular momentum L= 0

SPLIT: Basis orbitals for state 3s

SPLIT: PAO cut-off radius determined from an
SPLIT: energy shift=  0.000735 Ry
Split based on tail norm

   izeta = 1
                 lambda =    1.000000
                     rc =    5.243160
                 energy =   -1.519954
                kinetic =    1.090169
    potential(screened) =   -2.610123
       potential(ionic) =   -9.095744

   izeta = 2
                 rmatch =    2.987653
              splitnorm =    0.150000
                 energy =   -1.171269
                kinetic =    2.059164
    potential(screened) =   -3.230433
       potential(ionic) =  -10.120867

SPLIT: Orbitals with angular momentum L= 1

SPLIT: Basis orbitals for state 3p

SPLIT: PAO cut-off radius determined from an
SPLIT: energy shift=  0.000735 Ry
Split based on tail norm

   izeta = 1
                 lambda =    1.000000
                     rc =    6.735191
                 energy =   -0.630837
                kinetic =    1.762148
    potential(screened) =   -2.392985
       potential(ionic) =   -8.420135

   izeta = 2
                 rmatch =    3.846769
              splitnorm =    0.150000
                 energy =   -0.514409
                kinetic =    2.445302
    potential(screened) =   -2.959711
       potential(ionic) =   -9.472263

POLgen: Perturbative polarization orbital with L=  2

POLgen: Polarization orbital for state 3p
Split based on tail norm

   izeta = 1
                     rc =    6.735191
                 energy =    0.542034
                kinetic =    3.182136
    potential(screened) =   -2.640101
       potential(ionic) =   -8.314496
atom: Total number of Sankey-type orbitals: 13

atm_pop: Valence configuration (for local Pseudopot. screening):
 3s( 2.00)                                                            
 3p( 5.00)                                                            
 3d( 0.00)                                                            
Vna: chval, zval:    7.00000   7.00000

Vna:  Cut-off radius for the neutral-atom potential:   6.735191
comcore: Pseudo-core radius Rcore=  2.336277

atom: _________________________________________________________________________

<basis_specs>
===============================================================================
O                    Z=   8    Mass=  15.999        Charge= 0.17977+309
Lmxo=2 Lmxkb= 2    BasisType=split      Semic=F
L=0  Nsemic=0  Cnfigmx=2
          i=1  nzeta=2  polorb=0  (2s)
            splnorm:   0.15000    
               vcte:    40.000    
               rinn:  -0.90000    
               qcoe:    0.0000    
               qyuk:    0.0000    
               qwid:   0.10000E-01
                rcs:    0.0000      0.0000    
            lambdas:    1.0000      1.0000    
L=1  Nsemic=0  Cnfigmx=2
          i=1  nzeta=2  polorb=1  (2p)  (to be polarized perturbatively)
            splnorm:   0.15000    
               vcte:    40.000    
               rinn:  -0.90000    
               qcoe:    0.0000    
               qyuk:    0.0000    
               qwid:   0.10000E-01
                rcs:    0.0000      0.0000    
            lambdas:    1.0000      1.0000    
L=2  Nsemic=0  Cnfigmx=3
          i=1  nzeta=0  polorb=0  (3d)  (perturbative polarization orbital) (from 2p)
-------------------------------------------------------------------------------
L=0  Nkbl=1  erefs: 0.17977+309
L=1  Nkbl=1  erefs: 0.17977+309
L=2  Nkbl=1  erefs: 0.17977+309
===============================================================================
</basis_specs>

Using PAO.SplitTailNorm
atom: Called for O                     (Z =   8)
Maximum radius (at nrval) set to   50.00000 8518

read_vps: Pseudopotential generation method:
read_vps: ONCVPSP-3.Hamann's oncvpsp                        
Valence charge in pseudo generation:    6.00000

read_vps: Pseudopotential includes a core correction:
read_vps: Pseudo-core for xc-correction

xc_check: Exchange-correlation functional:
xc_check: GGA Perdew, Burke & Ernzerhof 1996
Got Vlocal (oncv-fit) from psml data
Choosing vlocal chloc cutoff:  6.020499
qtot up to nchloc:    6.00001015
atom: Maximum radius for chlocal:    6.02050
atom: Maximum radius for r*vlocal+2*Zval:    6.02050
Reading KB projs from O psml data
Using scalar-relativistic projectors in PSML file

PSML: Kleinman-Bylander projectors: 
   l= 0   rc=  1.372412   Ekb= 12.113471
   l= 0   rc=  1.372412   Ekb=  1.648048
   l= 1   rc=  1.474132   Ekb= -9.434259
   l= 1   rc=  1.474132   Ekb= -2.298541
   l= 2   rc=  1.277664   Ekb= -2.663910

PSML: Total number of  Kleinman-Bylander projectors:  13
atom: -------------------------------------------------------------------------

atom: SANKEY-TYPE ORBITALS:
atom: Selected multiple-zeta basis: split     

SPLIT: Orbitals with angular momentum L= 0

SPLIT: Basis orbitals for state 2s

SPLIT: PAO cut-off radius determined from an
SPLIT: energy shift=  0.000735 Ry
Split based on tail norm

   izeta = 1
                 lambda =    1.000000
                     rc =    4.566021
                 energy =   -1.760280
                kinetic =    1.535743
    potential(screened) =   -3.296022
       potential(ionic) =  -11.142033

   izeta = 2
                 rmatch =    2.434474
              splitnorm =    0.150000
                 energy =   -1.441584
                kinetic =    2.530209
    potential(screened) =   -3.971793
       potential(ionic) =  -12.502519

SPLIT: Orbitals with angular momentum L= 1

SPLIT: Basis orbitals for state 2p

SPLIT: PAO cut-off radius determined from an
SPLIT: energy shift=  0.000735 Ry
Split based on tail norm

   izeta = 1
                 lambda =    1.000000
                     rc =    5.912921
                 energy =   -0.662875
                kinetic =    4.463269
    potential(screened) =   -5.126144
       potential(ionic) =  -12.659411

   izeta = 2
                 rmatch =    3.103756
              splitnorm =    0.150000
                 energy =   -0.538095
                kinetic =    5.926477
    potential(screened) =   -6.464572
       potential(ionic) =  -14.688886

POLgen: Perturbative polarization orbital with L=  2

POLgen: Polarization orbital for state 2p
Split based on tail norm

   izeta = 1
                     rc =    5.912921
                 energy =    1.865729
                kinetic =    3.536681
    potential(screened) =   -1.670952
       potential(ionic) =   -7.378590
atom: Total number of Sankey-type orbitals: 13

atm_pop: Valence configuration (for local Pseudopot. screening):
 2s( 2.00)                                                            
 2p( 4.00)                                                            
 3d( 0.00)                                                            
Vna: chval, zval:    6.00000   6.00000

Vna:  Cut-off radius for the neutral-atom potential:   5.912921
comcore: Pseudo-core radius Rcore=  1.354557

atom: _________________________________________________________________________

prinput: Basis input 

PAO.BasisType split     

%block ChemicalSpeciesLabel
    1    6 C                       # Species index, atomic number, species label
    2    7 N                       # Species index, atomic number, species label
    3    1 H                       # Species index, atomic number, species label
    4   17 Cl                      # Species index, atomic number, species label
    5    8 O                       # Species index, atomic number, species label
%endblock ChemicalSpeciesLabel

%block PAO.Basis                 # Define Basis set
# WARNING: This information might be incomplete!
C                     2                    # Species label, number of l-shells
 n=2   0   2                         # n, l, Nzeta 
   5.866      3.303   
   1.000      1.000   
 n=2   1   2 P   1                   # n, l, Nzeta, Polarization, NzetaPol
   7.565      4.252   
   1.000      1.000   
N                     2                    # Species label, number of l-shells
 n=2   0   2                         # n, l, Nzeta 
   5.129      2.799   
   1.000      1.000   
 n=2   1   2 P   1                   # n, l, Nzeta, Polarization, NzetaPol
   6.615      3.582   
   1.000      1.000   
H                     1                    # Species label, number of l-shells
 n=1   0   2 P   1                   # n, l, Nzeta, Polarization, NzetaPol
   7.239      4.045   
   1.000      1.000   
Cl                    2                    # Species label, number of l-shells
 n=3   0   2                         # n, l, Nzeta 
   5.243      2.988   
   1.000      1.000   
 n=3   1   2 P   1                   # n, l, Nzeta, Polarization, NzetaPol
   6.735      3.847   
   1.000      1.000   
O                     2                    # Species label, number of l-shells
 n=2   0   2                         # n, l, Nzeta 
   4.566      2.434   
   1.000      1.000   
 n=2   1   2 P   1                   # n, l, Nzeta, Polarization, NzetaPol
   5.913      3.104   
   1.000      1.000   
%endblock PAO.Basis

prinput: ----------------------------------------------------------------------

Dumping basis to NetCDF file C.ion.nc
Dumping basis to NetCDF file N.ion.nc
Dumping basis to NetCDF file H.ion.nc
Dumping basis to NetCDF file Cl.ion.nc
Dumping basis to NetCDF file O.ion.nc
coor:   Atomic-coordinates input format  =     Cartesian coordinates
coor:                                          (in Angstroms)

siesta: Atomic coordinates (Bohr) and species
siesta:      2.32436   1.34171   0.00000  1        1
siesta:      4.61457   2.66619   0.00000  2        2
siesta:      0.00000   2.68341   0.00000  1        3
siesta:      0.00000   4.71865   0.00000  3        4
siesta:     -2.32436   1.34171   0.00000  1        5
siesta:     -4.81087   2.77972   0.00000  4        6
siesta:     -2.32436  -1.34171   0.00000  1        7
siesta:     -4.08559  -2.36027   0.00000  3        8
siesta:      0.00000  -2.68341   0.00000  1        9
siesta:     -0.00000  -5.32903   0.00000  1       10
siesta:      2.32436  -1.34171   0.00000  1       11
siesta:      4.08559  -2.36027   0.00000  3       12
siesta:      4.25263   4.52093   0.00000  3       13
siesta:      5.60925   2.23345   1.54739  3       14
siesta:      2.47264  -6.70930  -0.12442  5       15
siesta:     -1.61771  -6.29784   0.12437  3       16

siesta: System type = molecule  

initatomlists: Number of atoms, orbitals, and projectors:     16   160   125

coxmol: Writing XMOL coordinates into file optimization.xyz                                                                                                                                                                                                                    

siesta: ******************** Simulation parameters ****************************
siesta:
siesta: The following are some of the parameters of the simulation.
siesta: A complete list of the parameters used, including default values,
siesta: can be found in file out.fdf
siesta:
redata: Spin configuration                          = none
redata: Number of spin components                   = 1
redata: Time-Reversal Symmetry                      = T
redata: Spin spiral                                 = F
redata: Long output                                 =   F
redata: Number of Atomic Species                    =        5
redata: Charge density info will appear in .RHO file
redata: Write Mulliken charges (when)               = none
redata: Write Mulliken Pop.                         = NO
redata: Write Hirshfeld charges (when)              = none
redata: Write Voronoi charges (when)                = none
redata: Write spin charge (when)                    = none
redata: Matel table size (NRTAB)                    =     1024
redata: Mesh Cutoff                                 =   300.0000 Ry
redata: Net charge of the system                    =     0.0000 |e|
redata: Min. number of SCF Iter                     =        0
redata: Max. number of SCF Iter                     =     1000
redata: SCF convergence failure will abort job
redata: SCF mix quantity                            = Hamiltonian
redata: Mix DM or H after convergence               =   F
redata: Recompute H after scf cycle                 =   F
redata: Mix DM in first SCF step                    =   T
redata: Write Pulay info on disk                    =   F
redata: New DM Occupancy tolerance                  = 0.000000000001
redata: No kicks to SCF
redata: DM Mixing Weight for Kicks                  =     0.5000
redata: Require Harris convergence for SCF          =   F
redata: Harris energy tolerance for SCF             =     0.000100 eV
redata: Require DM convergence for SCF              =   T
redata: DM tolerance for SCF                        =     0.000100
redata: Require EDM convergence for SCF             =   F
redata: EDM tolerance for SCF                       =     0.001000 eV
redata: Require H convergence for SCF               =   T
redata: Hamiltonian tolerance for SCF               =     0.001000 eV
redata: Require (free) Energy convergence for SCF   =   F
redata: (free) Energy tolerance for SCF             =     0.000100 eV
redata: Using DFT-D3 dispersion                     =   F
redata: Using Saved Data (generic)                  =   F
redata: Use continuation files for DM               =   T
redata: Neglect nonoverlap interactions             =   F
redata: Method of Calculation                       = Diagonalization
redata: Electronic Temperature                      =   299.9863 K
redata: Fix the spin of the system                  =   F
redata: Max. number of TDED Iter                    =        1
redata: Number of TDED substeps                     =        3
redata: Dynamics option                             = CG coord. optimization
redata: Variable cell                               =   F
redata: Use continuation files for CG               =   F
redata: Max atomic displ per move                   =     0.1058 Ang
redata: Maximum number of optimization moves        =       50
redata: Force tolerance                             =     0.0050 eV/Ang
mix.SCF: Pulay mixing                            = Pulay
mix.SCF:    Variant                              = stable
mix.SCF:    History steps                        = 2
mix.SCF:    Linear mixing weight                 =     0.250000
mix.SCF:    Mixing weight                        =     0.250000
mix.SCF:    SVD condition                        = 0.1000E-07
redata: Save all siesta data in one NC              =   F
redata: ***********************************************************************

%block SCF.Mixers
  Pulay
%endblock SCF.Mixers

%block SCF.Mixer.Pulay
  # Mixing method
  method pulay
  variant stable

  # Mixing options
  weight 0.2500
  weight.linear 0.2500
  history 2
%endblock SCF.Mixer.Pulay

DM_history_depth set to one: no extrapolation allowed by default for geometry relaxation
Size of DM history Fstack: 1
Total number of electrons:    52.000000
Total ionic charge:    52.000000

siesta: k-grid: Number of k-points = 1
siesta: k-point is Gamma-only

diag: Algorithm                                     = D&C
diag: Used triangular part                          = Lower
diag: Absolute tolerance                            =  0.100E-15
diag: Orthogonalization factor                      =  0.100E-05
diag: Memory factor                                 =  1.0000


ts: **************************************************************
ts: Save H and S matrices                           =    F
ts: Save DM and EDM matrices                        =    F
ts: Only save the overlap matrix S                  =    F
ts: **************************************************************

************************ Begin: TS CHECKS AND WARNINGS ************************
************************ End: TS CHECKS AND WARNINGS **************************


                     ====================================
                        Begin CG opt. move =      0
                     ====================================

outcell: Unit cell vectors (Ang):
       15.514088    0.000000    0.000000
        0.000000   16.047411    0.000000
        0.000000    0.000000   10.884681

outcell: Cell vector modules (Ang)   :   15.514088   16.047411   10.884681
outcell: Cell angles (23,13,12) (deg):     90.0000     90.0000     90.0000
outcell: Cell volume (Ang**3)        :   2709.8605
<dSpData1D:S at geom step 0
  <sparsity:sparsity for geom step 0
    nrows_g=160 nrows=160 sparsity=.9714 nnzs=24868, refcount: 7>
  <dData1D:(new from dSpData1D) n=24868, refcount: 1>
refcount: 1>
new_DM -- step:     1
Initializing Density Matrix...

Attempting to read DM from file... Failed...
DM filled with atomic data:
<dSpData2D:DM initialized from atoms
  <sparsity:sparsity for geom step 0
    nrows_g=160 nrows=160 sparsity=.9714 nnzs=24868, refcount: 8>
  <dData2D:DM n=24868 m=1, refcount: 1>
refcount: 1>
No. of atoms with KB's overlaping orbs in proc 0. Max # of overlaps:      16     140

InitMesh: MESH = 162 x 180 x 120 = 3499200
InitMesh: Mesh cutoff (required, used) =   300.000   301.356 Ry
New grid distribution [1]: sub = 2

stepf: Fermi-Dirac step function

siesta: Program's energy decomposition (eV):
siesta: Ebs     =      -539.550006
siesta: Eions   =      4055.638103
siesta: Ena     =      1066.072298
siesta: Ekin    =      1580.395355
siesta: Enl     =      -101.044555
siesta: Eso     =         0.000000
siesta: Edftu   =         0.000000
siesta: DEna    =      -118.975735
siesta: DUscf   =        18.367463
siesta: DUext   =         0.000000
siesta: Ex      =      -734.155288
siesta: Ec      =       -61.970016
siesta: Exc     =      -796.125303
siesta: EbV     =         0.000000
siesta: eta*DQ  =         0.000000
siesta: Emadel  =         0.000000
siesta: Emeta   =         0.000000
siesta: Emolmec =         0.000000
siesta: Ekinion =         0.000000
siesta: Eharris =     -2386.861175
siesta: Etot    =     -2406.948580
siesta: FreeEng =     -2406.948580

        iscf     Eharris(eV)        E_KS(eV)     FreeEng(eV)     dDmax    Ef(eV) dHmax(eV)
   scf:    1    -2386.861175    -2406.948580    -2406.948580  1.957205 -7.810089 10.950564
timer: Routine,Calls,Time,% = IterSCF        1       3.529   5.57
   scf:    2    -2415.388394    -2412.703795    -2412.703795  0.257894 -6.334733  4.697635
   scf:    3    -2412.585537    -2413.371055    -2413.371055  0.271050 -5.290512  4.873022
   scf:    4    -2413.176381    -2413.741284    -2413.741284  0.198065 -4.976549  1.658657
   scf:    5    -2413.946181    -2413.897580    -2413.897580  0.074189 -5.111059  0.631210
   scf:    6    -2413.912159    -2413.907438    -2413.907438  0.021720 -5.000151  0.448213
   scf:    7    -2413.890509    -2413.913679    -2413.913679  0.029108 -4.861393  0.609273
   scf:    8    -2413.915801    -2413.921751    -2413.921751  0.026508 -4.887878  0.143760
   scf:    9    -2413.924099    -2413.923173    -2413.923173  0.003368 -4.871036  0.082491
   scf:   10    -2413.923785    -2413.923492    -2413.923492  0.003984 -4.856048  0.036580
   scf:   11    -2413.923564    -2413.923590    -2413.923590  0.002963 -4.844824  0.023859
   scf:   12    -2413.923601    -2413.923607    -2413.923607  0.000823 -4.847578  0.005465
   scf:   13    -2413.923612    -2413.923610    -2413.923610  0.000224 -4.846934  0.002915
   scf:   14    -2413.923612    -2413.923611    -2413.923611  0.000252 -4.846563  0.001205
   scf:   15    -2413.923611    -2413.923611    -2413.923611  0.000176 -4.846202  0.000922
   scf:   16    -2413.923611    -2413.923611    -2413.923611  0.000026 -4.846242  0.000337

SCF Convergence by DM+H criterion
max |DM_out - DM_in|         :     0.0000261510
max |H_out - H_in|      (eV) :     0.0003370864
SCF cycle converged after 16 iterations

Using DM_out to compute the final energy and forces
No. of atoms with KB's overlaping orbs in proc 0. Max # of overlaps:      16     140

siesta: E_KS(eV) =            -2413.9236

siesta: E_KS - E_eggbox =     -2413.9236

siesta: Atomic forces (eV/Ang):
----------------------------------------
   Tot    0.009718    0.009876    0.000109
----------------------------------------
   Max   11.532601
   Res    3.001611    sqrt( Sum f_i^2 / 3N )
----------------------------------------
   Max   11.532601    constrained

Stress tensor Voigt[x,y,z,yz,xz,xy] (kbar):       -8.26       -7.36       -0.58        0.45       -0.69       -0.21
(Free)E + p*V (eV/cell)    -2404.7935
Target enthalpy (eV/cell)    -2413.9236

                     ====================================
                        Begin CG opt. move =      1
                     ====================================

outcell: Unit cell vectors (Ang):
       15.514088    0.000000    0.000000
        0.000000   16.047411    0.000000
        0.000000    0.000000   10.884681

outcell: Cell vector modules (Ang)   :   15.514088   16.047411   10.884681
outcell: Cell angles (23,13,12) (deg):     90.0000     90.0000     90.0000
outcell: Cell volume (Ang**3)        :   2709.8605
<dSpData1D:S at geom step 1
  <sparsity:sparsity for geom step 1
    nrows_g=160 nrows=160 sparsity=.9752 nnzs=24966, refcount: 7>
  <dData1D:(new from dSpData1D) n=24966, refcount: 1>
refcount: 1>
new_DM -- step:     2
Re-using DM from previous geometries...
Number of DMs in history: 1
 DM extrapolation coefficients: 
1   1.00000
New DM after history re-use:
<dSpData2D:SpM extrapolated using coords
  <sparsity:sparsity for geom step 1
    nrows_g=160 nrows=160 sparsity=.9752 nnzs=24966, refcount: 9>
  <dData2D:(temp array for extrapolation) n=24966 m=1, refcount: 1>
refcount: 1>
No. of atoms with KB's overlaping orbs in proc 0. Max # of overlaps:      16     141

InitMesh: MESH = 162 x 180 x 120 = 3499200
InitMesh: Mesh cutoff (required, used) =   300.000   301.356 Ry
New grid distribution [1]: sub = 2

        iscf     Eharris(eV)        E_KS(eV)     FreeEng(eV)     dDmax    Ef(eV) dHmax(eV)
   scf:    1    -2415.199114    -2415.313889    -2415.313889  0.206782 -4.124760  3.604832
   scf:    2    -2406.689442    -2412.830236    -2412.830236  0.276979 -4.992892 11.603400
   scf:    3    -2416.224124    -2415.604569    -2415.604569  0.217219 -5.080548  0.307386
   scf:    4    -2415.611806    -2415.609559    -2415.609559  0.007264 -5.096304  0.167782
   scf:    5    -2415.611012    -2415.610657    -2415.610657  0.005842 -5.115449  0.042225
   scf:    6    -2415.610982    -2415.610900    -2415.610900  0.002452 -5.117328  0.036014
   scf:    7    -2415.611003    -2415.610961    -2415.610961  0.001402 -5.120765  0.015348
   scf:    8    -2415.611017    -2415.610992    -2415.610992  0.001175 -5.122800  0.011667
   scf:    9    -2415.611009    -2415.611003    -2415.611003  0.001000 -5.125009  0.004142
   scf:   10    -2415.611004    -2415.611004    -2415.611004  0.000228 -5.124937  0.003337
   scf:   11    -2415.611005    -2415.611004    -2415.611004  0.000129 -5.125153  0.002120
   scf:   12    -2415.611005    -2415.611005    -2415.611005  0.000168 -5.125389  0.001284
   scf:   13    -2415.611005    -2415.611005    -2415.611005  0.000173 -5.125672  0.000231
   scf:   14    -2415.611005    -2415.611005    -2415.611005  0.000020 -5.125636  0.000239

SCF Convergence by DM+H criterion
max |DM_out - DM_in|         :     0.0000201737
max |H_out - H_in|      (eV) :     0.0002387630
SCF cycle converged after 14 iterations

Using DM_out to compute the final energy and forces
No. of atoms with KB's overlaping orbs in proc 0. Max # of overlaps:      16     141

siesta: E_KS(eV) =            -2415.6110

siesta: Atomic forces (eV/Ang):
----------------------------------------
   Tot   -0.002803    0.000639   -0.000674
----------------------------------------
   Max    7.097333
   Res    1.768550    sqrt( Sum f_i^2 / 3N )
----------------------------------------
   Max    7.097333    constrained

Stress tensor Voigt[x,y,z,yz,xz,xy] (kbar):       -5.01       -5.97       -0.33        0.29       -0.58       -1.23
(Free)E + p*V (eV/cell)    -2409.2360
Target enthalpy (eV/cell)    -2415.6110

                     ====================================
                        Begin CG opt. move =      2
                     ====================================

outcell: Unit cell vectors (Ang):
       15.514088    0.000000    0.000000
        0.000000   16.047411    0.000000
        0.000000    0.000000   10.884681

outcell: Cell vector modules (Ang)   :   15.514088   16.047411   10.884681
outcell: Cell angles (23,13,12) (deg):     90.0000     90.0000     90.0000
outcell: Cell volume (Ang**3)        :   2709.8605
<dSpData1D:S at geom step 2
  <sparsity:sparsity for geom step 2
    nrows_g=160 nrows=160 sparsity=.9771 nnzs=25014, refcount: 7>
  <dData1D:(new from dSpData1D) n=25014, refcount: 1>
refcount: 1>
new_DM -- step:     3
Re-using DM from previous geometries...
Number of DMs in history: 1
 DM extrapolation coefficients: 
1   1.00000
New DM after history re-use:
<dSpData2D:SpM extrapolated using coords
  <sparsity:sparsity for geom step 2
    nrows_g=160 nrows=160 sparsity=.9771 nnzs=25014, refcount: 9>
  <dData2D:(temp array for extrapolation) n=25014 m=1, refcount: 1>
refcount: 1>
No. of atoms with KB's overlaping orbs in proc 0. Max # of overlaps:      16     142

InitMesh: MESH = 162 x 180 x 120 = 3499200
InitMesh: Mesh cutoff (required, used) =   300.000   301.356 Ry
New grid distribution [1]: sub = 2

        iscf     Eharris(eV)        E_KS(eV)     FreeEng(eV)     dDmax    Ef(eV) dHmax(eV)
   scf:    1    -2414.028195    -2415.695461    -2415.695461  0.337298 -3.765847  5.573281
   scf:    2    -2403.203112    -2412.338212    -2412.338212  0.293381 -4.983618 14.083139
   scf:    3    -2417.623170    -2416.410670    -2416.410670  0.210746 -5.005977  0.399014
   scf:    4    -2416.429061    -2416.423118    -2416.423118  0.012421 -5.036859  0.145115
   scf:    5    -2416.426020    -2416.424705    -2416.424705  0.004504 -3.967206  0.070282
   scf:    6    -2416.425766    -2416.425304    -2416.425304  0.005203 -3.995520  0.026524
   scf:    7    -2416.425432    -2416.425373    -2416.425373  0.002193 -4.003730  0.009739
   scf:    8    -2416.425396    -2416.425385    -2416.425385  0.000849 -4.005047  0.005930
   scf:    9    -2416.425392    -2416.425389    -2416.425389  0.000664 -4.006085  0.002283
   scf:   10    -2416.425390    -2416.425389    -2416.425389  0.000240 -4.006434  0.001035
   scf:   11    -2416.425389    -2416.425389    -2416.425389  0.000181 -4.006705  0.000481
   scf:   12    -2416.425389    -2416.425389    -2416.425389  0.000022 -4.006680  0.000351

SCF Convergence by DM+H criterion
max |DM_out - DM_in|         :     0.0000219709
max |H_out - H_in|      (eV) :     0.0003509461
SCF cycle converged after 12 iterations

Using DM_out to compute the final energy and forces
No. of atoms with KB's overlaping orbs in proc 0. Max # of overlaps:      16     142

siesta: E_KS(eV) =            -2416.4254

siesta: Atomic forces (eV/Ang):
----------------------------------------
   Tot    0.004821   -0.006599   -0.003400
----------------------------------------
   Max    3.338250
   Res    0.896301    sqrt( Sum f_i^2 / 3N )
----------------------------------------
   Max    3.338250    constrained

Stress tensor Voigt[x,y,z,yz,xz,xy] (kbar):       -4.63       -6.11        0.03        0.06       -0.27       -1.32
(Free)E + p*V (eV/cell)    -2410.3882
Target enthalpy (eV/cell)    -2416.4254

                     ====================================
                        Begin CG opt. move =      3
                     ====================================

outcell: Unit cell vectors (Ang):
       15.514088    0.000000    0.000000
        0.000000   16.047411    0.000000
        0.000000    0.000000   10.884681

outcell: Cell vector modules (Ang)   :   15.514088   16.047411   10.884681
outcell: Cell angles (23,13,12) (deg):     90.0000     90.0000     90.0000
outcell: Cell volume (Ang**3)        :   2709.8605
<dSpData1D:S at geom step 3
  <sparsity:sparsity for geom step 3
    nrows_g=160 nrows=160 sparsity=.9770 nnzs=25010, refcount: 7>
  <dData1D:(new from dSpData1D) n=25010, refcount: 1>
refcount: 1>
new_DM -- step:     4
Re-using DM from previous geometries...
Number of DMs in history: 1
 DM extrapolation coefficients: 
1   1.00000
New DM after history re-use:
<dSpData2D:SpM extrapolated using coords
  <sparsity:sparsity for geom step 3
    nrows_g=160 nrows=160 sparsity=.9770 nnzs=25010, refcount: 9>
  <dData2D:(temp array for extrapolation) n=25010 m=1, refcount: 1>
refcount: 1>
No. of atoms with KB's overlaping orbs in proc 0. Max # of overlaps:      16     141

InitMesh: MESH = 162 x 180 x 120 = 3499200
InitMesh: Mesh cutoff (required, used) =   300.000   301.356 Ry
New grid distribution [1]: sub = 2

        iscf     Eharris(eV)        E_KS(eV)     FreeEng(eV)     dDmax    Ef(eV) dHmax(eV)
   scf:    1    -2416.428981    -2416.426133    -2416.426133  0.057316 -5.150717  1.006062
   scf:    2    -2415.838604    -2416.257390    -2416.257390  0.057747 -4.466494  2.944092
   scf:    3    -2416.486789    -2416.447686    -2416.447686  0.045759 -4.953343  0.076656
   scf:    4    -2416.448105    -2416.447929    -2416.447929  0.001391 -4.934729  0.023708
   scf:    5    -2416.448019    -2416.447980    -2416.447980  0.001240 -4.926079  0.008491
   scf:    6    -2416.447994    -2416.447987    -2416.447987  0.000705 -4.924036  0.003628
   scf:    7    -2416.447991    -2416.447989    -2416.447989  0.000478 -4.923245  0.001632
   scf:    8    -2416.447990    -2416.447990    -2416.447990  0.000144 -4.923076  0.000948
   scf:    9    -2416.447990    -2416.447990    -2416.447990  0.000071 -4.922977  0.000533

SCF Convergence by DM+H criterion
max |DM_out - DM_in|         :     0.0000714512
max |H_out - H_in|      (eV) :     0.0005330136
SCF cycle converged after 9 iterations

Using DM_out to compute the final energy and forces
No. of atoms with KB's overlaping orbs in proc 0. Max # of overlaps:      16     141

siesta: E_KS(eV) =            -2416.4480

siesta: Atomic forces (eV/Ang):
----------------------------------------
   Tot    0.003753   -0.005864   -0.002879
----------------------------------------
   Max    2.718702
   Res    0.854061    sqrt( Sum f_i^2 / 3N )
----------------------------------------
   Max    2.718702    constrained

Stress tensor Voigt[x,y,z,yz,xz,xy] (kbar):       -4.31       -5.90       -0.02        0.09       -0.33       -1.45
(Free)E + p*V (eV/cell)    -2410.6842
Target enthalpy (eV/cell)    -2416.4480

cgvc: Finished line minimization    1.  Mean atomic displacement =    0.1183

                     ====================================
                        Begin CG opt. move =      4
                     ====================================

outcell: Unit cell vectors (Ang):
       15.514088    0.000000    0.000000
        0.000000   16.047411    0.000000
        0.000000    0.000000   10.884681

outcell: Cell vector modules (Ang)   :   15.514088   16.047411   10.884681
outcell: Cell angles (23,13,12) (deg):     90.0000     90.0000     90.0000
outcell: Cell volume (Ang**3)        :   2709.8605
<dSpData1D:S at geom step 4
  <sparsity:sparsity for geom step 4
    nrows_g=160 nrows=160 sparsity=.9763 nnzs=24994, refcount: 7>
  <dData1D:(new from dSpData1D) n=24994, refcount: 1>
refcount: 1>
new_DM -- step:     5
Re-using DM from previous geometries...
Number of DMs in history: 1
 DM extrapolation coefficients: 
1   1.00000
New DM after history re-use:
<dSpData2D:SpM extrapolated using coords
  <sparsity:sparsity for geom step 4
    nrows_g=160 nrows=160 sparsity=.9763 nnzs=24994, refcount: 9>
  <dData2D:(temp array for extrapolation) n=24994 m=1, refcount: 1>
refcount: 1>
No. of atoms with KB's overlaping orbs in proc 0. Max # of overlaps:      16     144

InitMesh: MESH = 162 x 180 x 120 = 3499200
InitMesh: Mesh cutoff (required, used) =   300.000   301.356 Ry
New grid distribution [1]: sub = 2

        iscf     Eharris(eV)        E_KS(eV)     FreeEng(eV)     dDmax    Ef(eV) dHmax(eV)
   scf:    1    -2409.021416    -2413.377402    -2413.377402  0.473672 -4.138056  5.560285
   scf:    2    -2385.568334    -2405.608246    -2405.608246  0.266482 -3.665508 13.182169
   scf:    3    -2416.838677    -2414.689685    -2414.689685  0.213158 -3.225686  0.806996
   scf:    4    -2414.724527    -2414.709939    -2414.709939  0.012097 -3.395006  0.324895
   scf:    5    -2414.716994    -2414.714145    -2414.714145  0.010351 -3.495571  0.087240
   scf:    6    -2414.715090    -2414.714644    -2414.714644  0.004583 -3.516199  0.040126
   scf:    7    -2414.714962    -2414.714813    -2414.714813  0.003594 -3.524378  0.012494
   scf:    8    -2414.714862    -2414.714839    -2414.714839  0.001555 -3.525131  0.004040
   scf:    9    -2414.714846    -2414.714843    -2414.714843  0.000556 -3.524509  0.001941
   scf:   10    -2414.714844    -2414.714843    -2414.714843  0.000130 -3.524004  0.001071
   scf:   11    -2414.714844    -2414.714844    -2414.714844  0.000084 -3.523567  0.000487

SCF Convergence by DM+H criterion
max |DM_out - DM_in|         :     0.0000836570
max |H_out - H_in|      (eV) :     0.0004868344
SCF cycle converged after 11 iterations

Using DM_out to compute the final energy and forces
No. of atoms with KB's overlaping orbs in proc 0. Max # of overlaps:      16     144

siesta: E_KS(eV) =            -2414.7148

siesta: Atomic forces (eV/Ang):
----------------------------------------
   Tot   -0.006546   -0.004603   -0.002686
----------------------------------------
   Max   19.289845
   Res    4.733671    sqrt( Sum f_i^2 / 3N )
----------------------------------------
   Max   19.289845    constrained

Stress tensor Voigt[x,y,z,yz,xz,xy] (kbar):      -14.22       -3.84        0.15       -0.38        0.47        5.67
(Free)E + p*V (eV/cell)    -2404.6133
Target enthalpy (eV/cell)    -2414.7148

                     ====================================
                        Begin CG opt. move =      5
                     ====================================

outcell: Unit cell vectors (Ang):
       15.514088    0.000000    0.000000
        0.000000   16.047411    0.000000
        0.000000    0.000000   10.884681

outcell: Cell vector modules (Ang)   :   15.514088   16.047411   10.884681
outcell: Cell angles (23,13,12) (deg):     90.0000     90.0000     90.0000
outcell: Cell volume (Ang**3)        :   2709.8605
<dSpData1D:S at geom step 5
  <sparsity:sparsity for geom step 5
    nrows_g=160 nrows=160 sparsity=.9752 nnzs=24964, refcount: 7>
  <dData1D:(new from dSpData1D) n=24964, refcount: 1>
refcount: 1>
new_DM -- step:     6
Re-using DM from previous geometries...
Number of DMs in history: 1
 DM extrapolation coefficients: 
1   1.00000
New DM after history re-use:
<dSpData2D:SpM extrapolated using coords
  <sparsity:sparsity for geom step 5
    nrows_g=160 nrows=160 sparsity=.9752 nnzs=24964, refcount: 9>
  <dData2D:(temp array for extrapolation) n=24964 m=1, refcount: 1>
refcount: 1>
No. of atoms with KB's overlaping orbs in proc 0. Max # of overlaps:      16     141

InitMesh: MESH = 162 x 180 x 120 = 3499200
InitMesh: Mesh cutoff (required, used) =   300.000   301.356 Ry
New grid distribution [1]: sub = 2

        iscf     Eharris(eV)        E_KS(eV)     FreeEng(eV)     dDmax    Ef(eV) dHmax(eV)
   scf:    1    -2411.003338    -2414.528071    -2414.528071  0.503191 -4.562912  7.966611
   scf:    2    -2162.304264    -2333.519748    -2333.519752  1.106598 -3.377868 50.961019
   scf:    3    -2420.630313    -2416.274136    -2416.274136  1.131018 -4.391904  3.947658
   scf:    4    -2416.739756    -2416.541316    -2416.541316  0.036155 -5.120359  1.958404
   scf:    5    -2416.654161    -2416.625596    -2416.625596  0.032812 -4.719993  0.191301
   scf:    6    -2416.628179    -2416.627003    -2416.627003  0.005340 -4.681377  0.097490
   scf:    7    -2416.627919    -2416.627511    -2416.627511  0.005581 -4.652206  0.029596
   scf:    8    -2416.627614    -2416.627566    -2416.627566  0.002146 -4.646578  0.013633
   scf:    9    -2416.627587    -2416.627577    -2416.627577  0.000951 -4.644450  0.006169
   scf:   10    -2416.627581    -2416.627579    -2416.627579  0.000257 -4.643807  0.003722
   scf:   11    -2416.627581    -2416.627580    -2416.627580  0.000283 -4.642764  0.000689
   scf:   12    -2416.627580    -2416.627580    -2416.627580  0.000053 -4.642495  0.000407

SCF Convergence by DM+H criterion
max |DM_out - DM_in|         :     0.0000527273
max |H_out - H_in|      (eV) :     0.0004068593
SCF cycle converged after 12 iterations

Using DM_out to compute the final energy and forces
No. of atoms with KB's overlaping orbs in proc 0. Max # of overlaps:      16     141

siesta: E_KS(eV) =            -2416.6276

siesta: Atomic forces (eV/Ang):
----------------------------------------
   Tot    0.007863   -0.006700   -0.003227
----------------------------------------
   Max    1.666196
   Res    0.463377    sqrt( Sum f_i^2 / 3N )
----------------------------------------
   Max    1.666196    constrained

Stress tensor Voigt[x,y,z,yz,xz,xy] (kbar):       -5.16       -4.85        0.02        0.03       -0.23       -0.37
(Free)E + p*V (eV/cell)    -2410.9945
Target enthalpy (eV/cell)    -2416.6276

cgvc: Finished line minimization    2.  Mean atomic displacement =    0.0236

                     ====================================
                        Begin CG opt. move =      6
                     ====================================

outcell: Unit cell vectors (Ang):
       15.514088    0.000000    0.000000
        0.000000   16.047411    0.000000
        0.000000    0.000000   10.884681

outcell: Cell vector modules (Ang)   :   15.514088   16.047411   10.884681
outcell: Cell angles (23,13,12) (deg):     90.0000     90.0000     90.0000
outcell: Cell volume (Ang**3)        :   2709.8605
<dSpData1D:S at geom step 6
  <sparsity:sparsity for geom step 6
    nrows_g=160 nrows=160 sparsity=.9748 nnzs=24954, refcount: 7>
  <dData1D:(new from dSpData1D) n=24954, refcount: 1>
refcount: 1>
new_DM -- step:     7
Re-using DM from previous geometries...
Number of DMs in history: 1
 DM extrapolation coefficients: 
1   1.00000
New DM after history re-use:
<dSpData2D:SpM extrapolated using coords
  <sparsity:sparsity for geom step 6
    nrows_g=160 nrows=160 sparsity=.9748 nnzs=24954, refcount: 9>
  <dData2D:(temp array for extrapolation) n=24954 m=1, refcount: 1>
refcount: 1>
No. of atoms with KB's overlaping orbs in proc 0. Max # of overlaps:      16     141

InitMesh: MESH = 162 x 180 x 120 = 3499200
InitMesh: Mesh cutoff (required, used) =   300.000   301.356 Ry
New grid distribution [1]: sub = 2

        iscf     Eharris(eV)        E_KS(eV)     FreeEng(eV)     dDmax    Ef(eV) dHmax(eV)
   scf:    1    -2417.037001    -2416.688522    -2416.688522  0.086653 -4.812820  0.875830
   scf:    2    -2416.092113    -2416.521419    -2416.521419  0.052139 -4.258308  2.523585
   scf:    3    -2416.760003    -2416.715676    -2416.715676  0.042189 -4.646739  0.096612
   scf:    4    -2416.716223    -2416.715984    -2416.715984  0.001572 -4.631571  0.054668
   scf:    5    -2416.716153    -2416.716077    -2416.716077  0.001523 -4.625454  0.022870
   scf:    6    -2416.716108    -2416.716094    -2416.716094  0.001024 -4.623398  0.004562
   scf:    7    -2416.716097    -2416.716096    -2416.716096  0.000331 -4.623369  0.001539
   scf:    8    -2416.716097    -2416.716096    -2416.716096  0.000134 -4.623398  0.001047
   scf:    9    -2416.716096    -2416.716096    -2416.716096  0.000062 -4.623363  0.000717

SCF Convergence by DM+H criterion
max |DM_out - DM_in|         :     0.0000620958
max |H_out - H_in|      (eV) :     0.0007172466
SCF cycle converged after 9 iterations

Using DM_out to compute the final energy and forces
No. of atoms with KB's overlaping orbs in proc 0. Max # of overlaps:      16     141

siesta: E_KS(eV) =            -2416.7161

siesta: Atomic forces (eV/Ang):
----------------------------------------
   Tot    0.006152   -0.006947   -0.002896
----------------------------------------
   Max    1.232963
   Res    0.344507    sqrt( Sum f_i^2 / 3N )
----------------------------------------
   Max    1.232963    constrained

Stress tensor Voigt[x,y,z,yz,xz,xy] (kbar):       -3.56       -3.57       -0.00        0.05       -0.26       -0.66
(Free)E + p*V (eV/cell)    -2412.6979
Target enthalpy (eV/cell)    -2416.7161

                     ====================================
                        Begin CG opt. move =      7
                     ====================================

outcell: Unit cell vectors (Ang):
       15.514088    0.000000    0.000000
        0.000000   16.047411    0.000000
        0.000000    0.000000   10.884681

outcell: Cell vector modules (Ang)   :   15.514088   16.047411   10.884681
outcell: Cell angles (23,13,12) (deg):     90.0000     90.0000     90.0000
outcell: Cell volume (Ang**3)        :   2709.8605
<dSpData1D:S at geom step 7
  <sparsity:sparsity for geom step 7
    nrows_g=160 nrows=160 sparsity=.9691 nnzs=24810, refcount: 7>
  <dData1D:(new from dSpData1D) n=24810, refcount: 1>
refcount: 1>
new_DM -- step:     8
Re-using DM from previous geometries...
Number of DMs in history: 1
 DM extrapolation coefficients: 
1   1.00000
New DM after history re-use:
<dSpData2D:SpM extrapolated using coords
  <sparsity:sparsity for geom step 7
    nrows_g=160 nrows=160 sparsity=.9691 nnzs=24810, refcount: 9>
  <dData2D:(temp array for extrapolation) n=24810 m=1, refcount: 1>
refcount: 1>
Note: For starting DM, Qtot, Tr[D*S] =         52.00000000         51.94771055
No. of atoms with KB's overlaping orbs in proc 0. Max # of overlaps:      16     140

InitMesh: MESH = 162 x 180 x 120 = 3499200
InitMesh: Mesh cutoff (required, used) =   300.000   301.356 Ry
New grid distribution [1]: sub = 2

        iscf     Eharris(eV)        E_KS(eV)     FreeEng(eV)     dDmax    Ef(eV) dHmax(eV)
   scf:    1    -2416.897461    -2416.497099    -2416.497099  0.127723 -4.903341  1.338978
   scf:    2    -2414.899506    -2416.045028    -2416.045028  0.095439 -4.043720  4.065739
   scf:    3    -2416.673080    -2416.564706    -2416.564706  0.081065 -4.649727  0.150445
   scf:    4    -2416.566356    -2416.565701    -2416.565701  0.002940 -4.619346  0.080318
   scf:    5    -2416.566099    -2416.565916    -2416.565916  0.002136 -4.610629  0.041084
   scf:    6    -2416.566019    -2416.565975    -2416.565975  0.001861 -4.605174  0.006886
   scf:    7    -2416.565981    -2416.565978    -2416.565978  0.000397 -4.605485  0.002606
   scf:    8    -2416.565981    -2416.565979    -2416.565979  0.000277 -4.605500  0.001460
   scf:    9    -2416.565980    -2416.565980    -2416.565980  0.000073 -4.605458  0.001153
   scf:   10    -2416.565980    -2416.565980    -2416.565980  0.000104 -4.605294  0.000351
   scf:   11    -2416.565980    -2416.565980    -2416.565980  0.000027 -4.605221  0.000167

SCF Convergence by DM+H criterion
max |DM_out - DM_in|         :     0.0000267803
max |H_out - H_in|      (eV) :     0.0001668100
SCF cycle converged after 11 iterations

Using DM_out to compute the final energy and forces
No. of atoms with KB's overlaping orbs in proc 0. Max # of overlaps:      16     140

siesta: E_KS(eV) =            -2416.5660

siesta: Atomic forces (eV/Ang):
----------------------------------------
   Tot    0.004950   -0.003023   -0.001998
----------------------------------------
   Max    4.825063
   Res    1.006483    sqrt( Sum f_i^2 / 3N )
----------------------------------------
   Max    4.825063    constrained

Stress tensor Voigt[x,y,z,yz,xz,xy] (kbar):       -1.43       -1.85       -0.04        0.06       -0.31       -1.12
(Free)E + p*V (eV/cell)    -2414.6967
Target enthalpy (eV/cell)    -2416.5660

                     ====================================
                        Begin CG opt. move =      8
                     ====================================

outcell: Unit cell vectors (Ang):
       15.514088    0.000000    0.000000
        0.000000   16.047411    0.000000
        0.000000    0.000000   10.884681

outcell: Cell vector modules (Ang)   :   15.514088   16.047411   10.884681
outcell: Cell angles (23,13,12) (deg):     90.0000     90.0000     90.0000
outcell: Cell volume (Ang**3)        :   2709.8605
<dSpData1D:S at geom step 8
  <sparsity:sparsity for geom step 8
    nrows_g=160 nrows=160 sparsity=.9748 nnzs=24954, refcount: 7>
  <dData1D:(new from dSpData1D) n=24954, refcount: 1>
refcount: 1>
new_DM -- step:     9
Re-using DM from previous geometries...
Number of DMs in history: 1
 DM extrapolation coefficients: 
1   1.00000
New DM after history re-use:
<dSpData2D:SpM extrapolated using coords
  <sparsity:sparsity for geom step 8
    nrows_g=160 nrows=160 sparsity=.9748 nnzs=24954, refcount: 9>
  <dData2D:(temp array for extrapolation) n=24954 m=1, refcount: 1>
refcount: 1>
No. of atoms with KB's overlaping orbs in proc 0. Max # of overlaps:      16     141

InitMesh: MESH = 162 x 180 x 120 = 3499200
InitMesh: Mesh cutoff (required, used) =   300.000   301.356 Ry
New grid distribution [1]: sub = 2

        iscf     Eharris(eV)        E_KS(eV)     FreeEng(eV)     dDmax    Ef(eV) dHmax(eV)
   scf:    1    -2416.024785    -2416.665308    -2416.665308  0.122754 -4.381511  1.027794
   scf:    2    -2415.714381    -2416.405427    -2416.405427  0.057691 -5.068516  2.760431
   scf:    3    -2416.797599    -2416.716520    -2416.716520  0.038923 -4.596255  0.111155
   scf:    4    -2416.717371    -2416.716981    -2416.716981  0.002123 -4.609103  0.069921
   scf:    5    -2416.717303    -2416.717160    -2416.717160  0.002016 -4.618734  0.025973
   scf:    6    -2416.717206    -2416.717185    -2416.717185  0.001089 -4.620642  0.007252
   scf:    7    -2416.717192    -2416.717188    -2416.717188  0.000519 -4.620965  0.001697
   scf:    8    -2416.717190    -2416.717189    -2416.717189  0.000126 -4.620882  0.001328
   scf:    9    -2416.717190    -2416.717189    -2416.717189  0.000110 -4.620915  0.000820
   scf:   10    -2416.717189    -2416.717189    -2416.717189  0.000059 -4.621004  0.000405

SCF Convergence by DM+H criterion
max |DM_out - DM_in|         :     0.0000593987
max |H_out - H_in|      (eV) :     0.0004049780
SCF cycle converged after 10 iterations

Using DM_out to compute the final energy and forces
No. of atoms with KB's overlaping orbs in proc 0. Max # of overlaps:      16     141

siesta: E_KS(eV) =            -2416.7172

siesta: Atomic forces (eV/Ang):
----------------------------------------
   Tot    0.006058   -0.006799   -0.002813
----------------------------------------
   Max    1.402072
   Res    0.380405    sqrt( Sum f_i^2 / 3N )
----------------------------------------
   Max    1.402072    constrained

Stress tensor Voigt[x,y,z,yz,xz,xy] (kbar):       -3.37       -3.42       -0.00        0.05       -0.27       -0.70
(Free)E + p*V (eV/cell)    -2412.8900
Target enthalpy (eV/cell)    -2416.7172

cgvc: Finished line minimization    3.  Mean atomic displacement =    0.0266

                     ====================================
                        Begin CG opt. move =      9
                     ====================================

outcell: Unit cell vectors (Ang):
       15.514088    0.000000    0.000000
        0.000000   16.047411    0.000000
        0.000000    0.000000   10.884681

outcell: Cell vector modules (Ang)   :   15.514088   16.047411   10.884681
outcell: Cell angles (23,13,12) (deg):     90.0000     90.0000     90.0000
outcell: Cell volume (Ang**3)        :   2709.8605
<dSpData1D:S at geom step 9
  <sparsity:sparsity for geom step 9
    nrows_g=160 nrows=160 sparsity=.9705 nnzs=24844, refcount: 7>
  <dData1D:(new from dSpData1D) n=24844, refcount: 1>
refcount: 1>
new_DM -- step:    10
Re-using DM from previous geometries...
Number of DMs in history: 1
 DM extrapolation coefficients: 
1   1.00000
New DM after history re-use:
<dSpData2D:SpM extrapolated using coords
  <sparsity:sparsity for geom step 9
    nrows_g=160 nrows=160 sparsity=.9705 nnzs=24844, refcount: 9>
  <dData2D:(temp array for extrapolation) n=24844 m=1, refcount: 1>
refcount: 1>
No. of atoms with KB's overlaping orbs in proc 0. Max # of overlaps:      16     140

InitMesh: MESH = 162 x 180 x 120 = 3499200
InitMesh: Mesh cutoff (required, used) =   300.000   301.356 Ry
New grid distribution [1]: sub = 2

        iscf     Eharris(eV)        E_KS(eV)     FreeEng(eV)     dDmax    Ef(eV) dHmax(eV)
   scf:    1    -2416.712556    -2416.732623    -2416.732623  0.072536 -4.948827  1.274323
   scf:    2    -2415.520929    -2416.389550    -2416.389550  0.079363 -4.784033  3.532839
   scf:    3    -2416.873517    -2416.781701    -2416.781701  0.059009 -5.211064  0.100152
   scf:    4    -2416.782352    -2416.782076    -2416.782076  0.001793 -5.234594  0.036317
   scf:    5    -2416.782225    -2416.782162    -2416.782162  0.001491 -5.249131  0.010001
   scf:    6    -2416.782184    -2416.782174    -2416.782174  0.000792 -5.252045  0.004260
   scf:    7    -2416.782180    -2416.782177    -2416.782177  0.000608 -5.253199  0.001231
   scf:    8    -2416.782178    -2416.782178    -2416.782178  0.000253 -5.253334  0.000540
   scf:    9    -2416.782178    -2416.782178    -2416.782178  0.000101 -5.253290  0.000322
   scf:   10    -2416.782178    -2416.782178    -2416.782178  0.000024 -5.253232  0.000202

SCF Convergence by DM+H criterion
max |DM_out - DM_in|         :     0.0000238437
max |H_out - H_in|      (eV) :     0.0002017496
SCF cycle converged after 10 iterations

Using DM_out to compute the final energy and forces
No. of atoms with KB's overlaping orbs in proc 0. Max # of overlaps:      16     140

siesta: E_KS(eV) =            -2416.7822

siesta: Atomic forces (eV/Ang):
----------------------------------------
   Tot    0.004991   -0.003964   -0.002026
----------------------------------------
   Max    0.650099
   Res    0.246261    sqrt( Sum f_i^2 / 3N )
----------------------------------------
   Max    0.650099    constrained

Stress tensor Voigt[x,y,z,yz,xz,xy] (kbar):       -2.85       -2.50       -0.00       -0.02       -0.19       -0.13
(Free)E + p*V (eV/cell)    -2413.7626
Target enthalpy (eV/cell)    -2416.7822

                     ====================================
                        Begin CG opt. move =     10
                     ====================================

outcell: Unit cell vectors (Ang):
       15.514088    0.000000    0.000000
        0.000000   16.047411    0.000000
        0.000000    0.000000   10.884681

outcell: Cell vector modules (Ang)   :   15.514088   16.047411   10.884681
outcell: Cell angles (23,13,12) (deg):     90.0000     90.0000     90.0000
outcell: Cell volume (Ang**3)        :   2709.8605
<dSpData1D:S at geom step 10
  <sparsity:sparsity for geom step 10
    nrows_g=160 nrows=160 sparsity=.9691 nnzs=24808, refcount: 7>
  <dData1D:(new from dSpData1D) n=24808, refcount: 1>
refcount: 1>
new_DM -- step:    11
Re-using DM from previous geometries...
Number of DMs in history: 1
 DM extrapolation coefficients: 
1   1.00000
New DM after history re-use:
<dSpData2D:SpM extrapolated using coords
  <sparsity:sparsity for geom step 10
    nrows_g=160 nrows=160 sparsity=.9691 nnzs=24808, refcount: 9>
  <dData2D:(temp array for extrapolation) n=24808 m=1, refcount: 1>
refcount: 1>
No. of atoms with KB's overlaping orbs in proc 0. Max # of overlaps:      16     140

InitMesh: MESH = 162 x 180 x 120 = 3499200
InitMesh: Mesh cutoff (required, used) =   300.000   301.356 Ry
New grid distribution [1]: sub = 2

        iscf     Eharris(eV)        E_KS(eV)     FreeEng(eV)     dDmax    Ef(eV) dHmax(eV)
   scf:    1    -2416.317422    -2416.535180    -2416.535180  0.114842 -3.724517  1.961897
   scf:    2    -2413.702036    -2415.736568    -2415.736568  0.111805 -4.031905  5.153283
   scf:    3    -2416.871981    -2416.654752    -2416.654752  0.083487 -4.130316  0.184305
   scf:    4    -2416.656661    -2416.655861    -2416.655861  0.002992 -4.169949  0.062477
   scf:    5    -2416.656261    -2416.656093    -2416.656093  0.002413 -4.193414  0.018581
   scf:    6    -2416.656153    -2416.656125    -2416.656125  0.001278 -4.198530  0.007579
   scf:    7    -2416.656143    -2416.656134    -2416.656134  0.000924 -4.200176  0.002493
   scf:    8    -2416.656137    -2416.656136    -2416.656136  0.000466 -4.200427  0.000926
   scf:    9    -2416.656136    -2416.656136    -2416.656136  0.000157 -4.200333  0.000505
   scf:   10    -2416.656136    -2416.656136    -2416.656136  0.000042 -4.200230  0.000340

SCF Convergence by DM+H criterion
max |DM_out - DM_in|         :     0.0000420977
max |H_out - H_in|      (eV) :     0.0003400767
SCF cycle converged after 10 iterations

Using DM_out to compute the final energy and forces
No. of atoms with KB's overlaping orbs in proc 0. Max # of overlaps:      16     140

siesta: E_KS(eV) =            -2416.6561

siesta: Atomic forces (eV/Ang):
----------------------------------------
   Tot   -0.004219   -0.002071   -0.000993
----------------------------------------
   Max    3.758690
   Res    0.967832    sqrt( Sum f_i^2 / 3N )
----------------------------------------
   Max    3.758690    constrained

Stress tensor Voigt[x,y,z,yz,xz,xy] (kbar):       -2.53       -1.26       -0.00       -0.15       -0.03        0.97
(Free)E + p*V (eV/cell)    -2414.5184
Target enthalpy (eV/cell)    -2416.6561

                     ====================================
                        Begin CG opt. move =     11
                     ====================================

outcell: Unit cell vectors (Ang):
       15.514088    0.000000    0.000000
        0.000000   16.047411    0.000000
        0.000000    0.000000   10.884681

outcell: Cell vector modules (Ang)   :   15.514088   16.047411   10.884681
outcell: Cell angles (23,13,12) (deg):     90.0000     90.0000     90.0000
outcell: Cell volume (Ang**3)        :   2709.8605
<dSpData1D:S at geom step 11
  <sparsity:sparsity for geom step 11
    nrows_g=160 nrows=160 sparsity=.9691 nnzs=24808, refcount: 7>
  <dData1D:(new from dSpData1D) n=24808, refcount: 1>
refcount: 1>
new_DM -- step:    12
Re-using DM from previous geometries...
Number of DMs in history: 1
 DM extrapolation coefficients: 
1   1.00000
New DM after history re-use:
<dSpData2D:SpM extrapolated using coords
  <sparsity:sparsity for geom step 11
    nrows_g=160 nrows=160 sparsity=.9691 nnzs=24808, refcount: 9>
  <dData2D:(temp array for extrapolation) n=24808 m=1, refcount: 1>
refcount: 1>
No. of atoms with KB's overlaping orbs in proc 0. Max # of overlaps:      16     140

InitMesh: MESH = 162 x 180 x 120 = 3499200
InitMesh: Mesh cutoff (required, used) =   300.000   301.356 Ry
New grid distribution [1]: sub = 2

        iscf     Eharris(eV)        E_KS(eV)     FreeEng(eV)     dDmax    Ef(eV) dHmax(eV)
   scf:    1    -2416.292131    -2416.651310    -2416.651310  0.117699 -4.724092  2.063195
   scf:    2    -2413.541348    -2415.774737    -2415.774737  0.116885 -4.369154  5.751749
   scf:    3    -2417.031285    -2416.782168    -2416.782168  0.088488 -4.309050  0.093350
   scf:    4    -2416.783066    -2416.782684    -2416.782684  0.001874 -4.286382  0.043359
   scf:    5    -2416.782989    -2416.782849    -2416.782849  0.002393 -4.271094  0.017630
   scf:    6    -2416.782916    -2416.782886    -2416.782886  0.001793 -4.263811  0.003845
   scf:    7    -2416.782892    -2416.782889    -2416.782889  0.000542 -4.263345  0.001925
   scf:    8    -2416.782891    -2416.782891    -2416.782891  0.000461 -4.263173  0.000713
   scf:    9    -2416.782891    -2416.782891    -2416.782891  0.000057 -4.263255  0.000466

SCF Convergence by DM+H criterion
max |DM_out - DM_in|         :     0.0000569132
max |H_out - H_in|      (eV) :     0.0004664684
SCF cycle converged after 9 iterations

Using DM_out to compute the final energy and forces
No. of atoms with KB's overlaping orbs in proc 0. Max # of overlaps:      16     140

siesta: E_KS(eV) =            -2416.7829

siesta: Atomic forces (eV/Ang):
----------------------------------------
   Tot    0.004629   -0.003805   -0.001928
----------------------------------------
   Max    0.773051
   Res    0.271588    sqrt( Sum f_i^2 / 3N )
----------------------------------------
   Max    0.773051    constrained

Stress tensor Voigt[x,y,z,yz,xz,xy] (kbar):       -2.81       -2.41       -0.00       -0.03       -0.18       -0.06
(Free)E + p*V (eV/cell)    -2413.8385
Target enthalpy (eV/cell)    -2416.7829

cgvc: Finished line minimization    4.  Mean atomic displacement =    0.0294

                     ====================================
                        Begin CG opt. move =     12
                     ====================================

outcell: Unit cell vectors (Ang):
       15.514088    0.000000    0.000000
        0.000000   16.047411    0.000000
        0.000000    0.000000   10.884681

outcell: Cell vector modules (Ang)   :   15.514088   16.047411   10.884681
outcell: Cell angles (23,13,12) (deg):     90.0000     90.0000     90.0000
outcell: Cell volume (Ang**3)        :   2709.8605
<dSpData1D:S at geom step 12
  <sparsity:sparsity for geom step 12
    nrows_g=160 nrows=160 sparsity=.9691 nnzs=24808, refcount: 7>
  <dData1D:(new from dSpData1D) n=24808, refcount: 1>
refcount: 1>
new_DM -- step:    13
Re-using DM from previous geometries...
Number of DMs in history: 1
 DM extrapolation coefficients: 
1   1.00000
New DM after history re-use:
<dSpData2D:SpM extrapolated using coords
  <sparsity:sparsity for geom step 12
    nrows_g=160 nrows=160 sparsity=.9691 nnzs=24808, refcount: 9>
  <dData2D:(temp array for extrapolation) n=24808 m=1, refcount: 1>
refcount: 1>
No. of atoms with KB's overlaping orbs in proc 0. Max # of overlaps:      16     140

InitMesh: MESH = 162 x 180 x 120 = 3499200
InitMesh: Mesh cutoff (required, used) =   300.000   301.356 Ry
New grid distribution [1]: sub = 2

        iscf     Eharris(eV)        E_KS(eV)     FreeEng(eV)     dDmax    Ef(eV) dHmax(eV)
   scf:    1    -2417.438626    -2416.826471    -2416.826471  0.054207 -5.282767  0.293335
   scf:    2    -2416.770580    -2416.813357    -2416.813357  0.021727 -5.283152  0.641909
   scf:    3    -2416.838885    -2416.832637    -2416.832637  0.013436 -5.284066  0.025751
   scf:    4    -2416.832723    -2416.832683    -2416.832683  0.000475 -5.283761  0.015412
   scf:    5    -2416.832715    -2416.832702    -2416.832702  0.000564 -5.283870  0.004510
   scf:    6    -2416.832705    -2416.832703    -2416.832703  0.000269 -5.284017  0.001540
   scf:    7    -2416.832704    -2416.832704    -2416.832704  0.000188 -5.284198  0.000588
[...]
                        Begin CG opt. move =     47
                     ====================================

outcell: Unit cell vectors (Ang):
       15.514088    0.000000    0.000000
        0.000000   16.047411    0.000000
        0.000000    0.000000   10.884681

outcell: Cell vector modules (Ang)   :   15.514088   16.047411   10.884681
outcell: Cell angles (23,13,12) (deg):     90.0000     90.0000     90.0000
outcell: Cell volume (Ang**3)        :   2709.8605
<dSpData1D:S at geom step 47
  <sparsity:sparsity for geom step 47
    nrows_g=160 nrows=160 sparsity=.9651 nnzs=24706, refcount: 7>
  <dData1D:(new from dSpData1D) n=24706, refcount: 1>
refcount: 1>
new_DM -- step:    48
Re-using DM from previous geometries...
Number of DMs in history: 1
 DM extrapolation coefficients: 
1   1.00000
New DM after history re-use:
<dSpData2D:SpM extrapolated using coords
  <sparsity:sparsity for geom step 47
    nrows_g=160 nrows=160 sparsity=.9651 nnzs=24706, refcount: 9>
  <dData2D:(temp array for extrapolation) n=24706 m=1, refcount: 1>
refcount: 1>
No. of atoms with KB's overlaping orbs in proc 0. Max # of overlaps:      16     136

InitMesh: MESH = 162 x 180 x 120 = 3499200
InitMesh: Mesh cutoff (required, used) =   300.000   301.356 Ry
New grid distribution [1]: sub = 2

        iscf     Eharris(eV)        E_KS(eV)     FreeEng(eV)     dDmax    Ef(eV) dHmax(eV)
   scf:    1    -2416.972095    -2416.953261    -2416.953261  0.005053 -4.210776  0.050666
   scf:    2    -2416.951863    -2416.952884    -2416.952884  0.002680 -4.175333  0.126613
   scf:    3    -2416.953463    -2416.953345    -2416.953345  0.001881 -4.199144  0.003199
   scf:    4    -2416.953348    -2416.953347    -2416.953347  0.000098 -4.198251  0.001935
   scf:    5    -2416.953348    -2416.953347    -2416.953347  0.000114 -4.197662  0.000682
   scf:    6    -2416.953347    -2416.953347    -2416.953347  0.000046 -4.197586  0.000291

SCF Convergence by DM+H criterion
max |DM_out - DM_in|         :     0.0000459147
max |H_out - H_in|      (eV) :     0.0002912444
SCF cycle converged after 6 iterations

Using DM_out to compute the final energy and forces
No. of atoms with KB's overlaping orbs in proc 0. Max # of overlaps:      16     136

siesta: E_KS(eV) =            -2416.9533

siesta: Atomic forces (eV/Ang):
----------------------------------------
   Tot    0.002279   -0.002855    0.003393
----------------------------------------
   Max    0.218336
   Res    0.070831    sqrt( Sum f_i^2 / 3N )
----------------------------------------
   Max    0.218336    constrained

Stress tensor Voigt[x,y,z,yz,xz,xy] (kbar):        0.22       -0.39        0.02       -0.01        0.05       -0.18
(Free)E + p*V (eV/cell)    -2416.8706
Target enthalpy (eV/cell)    -2416.9533

cgvc: Finished line minimization   18.  Mean atomic displacement =    0.0267

                     ====================================
                        Begin CG opt. move =     48
                     ====================================

outcell: Unit cell vectors (Ang):
       15.514088    0.000000    0.000000
        0.000000   16.047411    0.000000
        0.000000    0.000000   10.884681

outcell: Cell vector modules (Ang)   :   15.514088   16.047411   10.884681
outcell: Cell angles (23,13,12) (deg):     90.0000     90.0000     90.0000
outcell: Cell volume (Ang**3)        :   2709.8605
<dSpData1D:S at geom step 48
  <sparsity:sparsity for geom step 48
    nrows_g=160 nrows=160 sparsity=.9651 nnzs=24706, refcount: 7>
  <dData1D:(new from dSpData1D) n=24706, refcount: 1>
refcount: 1>
new_DM -- step:    49
Re-using DM from previous geometries...
Number of DMs in history: 1
 DM extrapolation coefficients: 
1   1.00000
New DM after history re-use:
<dSpData2D:SpM extrapolated using coords
  <sparsity:sparsity for geom step 48
    nrows_g=160 nrows=160 sparsity=.9651 nnzs=24706, refcount: 9>
  <dData2D:(temp array for extrapolation) n=24706 m=1, refcount: 1>
refcount: 1>
No. of atoms with KB's overlaping orbs in proc 0. Max # of overlaps:      16     136

InitMesh: MESH = 162 x 180 x 120 = 3499200
InitMesh: Mesh cutoff (required, used) =   300.000   301.356 Ry
New grid distribution [1]: sub = 2

        iscf     Eharris(eV)        E_KS(eV)     FreeEng(eV)     dDmax    Ef(eV) dHmax(eV)
   scf:    1    -2417.016472    -2416.948524    -2416.948524  0.027329 -4.136837  0.282061
   scf:    2    -2416.869475    -2416.926466    -2416.926466  0.016154 -4.998236  0.864200
   scf:    3    -2416.958344    -2416.952226    -2416.952226  0.012091 -4.085739  0.033009
   scf:    4    -2416.952363    -2416.952298    -2416.952298  0.000625 -4.083283  0.020367
   scf:    5    -2416.952367    -2416.952338    -2416.952338  0.000703 -4.081227  0.003924
   scf:    6    -2416.952341    -2416.952340    -2416.952340  0.000155 -4.081352  0.001825
   scf:    7    -2416.952341    -2416.952341    -2416.952341  0.000220 -4.081616  0.000715
   scf:    8    -2416.952341    -2416.952341    -2416.952341  0.000046 -4.081674  0.000472

SCF Convergence by DM+H criterion
max |DM_out - DM_in|         :     0.0000457746
max |H_out - H_in|      (eV) :     0.0004715768
SCF cycle converged after 8 iterations

Using DM_out to compute the final energy and forces
No. of atoms with KB's overlaping orbs in proc 0. Max # of overlaps:      16     136

siesta: E_KS(eV) =            -2416.9523

siesta: Atomic forces (eV/Ang):
----------------------------------------
   Tot    0.002754   -0.003819    0.002865
----------------------------------------
   Max    0.475624
   Res    0.159434    sqrt( Sum f_i^2 / 3N )
----------------------------------------
   Max    0.475624    constrained

Stress tensor Voigt[x,y,z,yz,xz,xy] (kbar):        0.34       -0.52       -0.00        0.05        0.01       -0.48
(Free)E + p*V (eV/cell)    -2416.8531
Target enthalpy (eV/cell)    -2416.9523

                     ====================================
                        Begin CG opt. move =     49
                     ====================================

outcell: Unit cell vectors (Ang):
       15.514088    0.000000    0.000000
        0.000000   16.047411    0.000000
        0.000000    0.000000   10.884681

outcell: Cell vector modules (Ang)   :   15.514088   16.047411   10.884681
outcell: Cell angles (23,13,12) (deg):     90.0000     90.0000     90.0000
outcell: Cell volume (Ang**3)        :   2709.8605
<dSpData1D:S at geom step 49
  <sparsity:sparsity for geom step 49
    nrows_g=160 nrows=160 sparsity=.9651 nnzs=24706, refcount: 7>
  <dData1D:(new from dSpData1D) n=24706, refcount: 1>
refcount: 1>
new_DM -- step:    50
Re-using DM from previous geometries...
Number of DMs in history: 1
 DM extrapolation coefficients: 
1   1.00000
New DM after history re-use:
<dSpData2D:SpM extrapolated using coords
  <sparsity:sparsity for geom step 49
    nrows_g=160 nrows=160 sparsity=.9651 nnzs=24706, refcount: 9>
  <dData2D:(temp array for extrapolation) n=24706 m=1, refcount: 1>
refcount: 1>
No. of atoms with KB's overlaping orbs in proc 0. Max # of overlaps:      16     136

InitMesh: MESH = 162 x 180 x 120 = 3499200
InitMesh: Mesh cutoff (required, used) =   300.000   301.356 Ry
New grid distribution [1]: sub = 2

        iscf     Eharris(eV)        E_KS(eV)     FreeEng(eV)     dDmax    Ef(eV) dHmax(eV)
   scf:    1    -2416.910421    -2416.954766    -2416.954766  0.014921 -4.113283  0.155900
   scf:    2    -2416.932073    -2416.948459    -2416.948459  0.008852 -4.218823  0.467470
   scf:    3    -2416.957640    -2416.955862    -2416.955862  0.006594 -4.142157  0.016383
   scf:    4    -2416.955902    -2416.955883    -2416.955883  0.000333 -4.143592  0.010322
   scf:    5    -2416.955903    -2416.955894    -2416.955894  0.000376 -4.144819  0.002121
   scf:    6    -2416.955896    -2416.955895    -2416.955895  0.000085 -4.144735  0.001012
   scf:    7    -2416.955895    -2416.955895    -2416.955895  0.000124 -4.144584  0.000369
   scf:    8    -2416.955895    -2416.955895    -2416.955895  0.000023 -4.144553  0.000243

SCF Convergence by DM+H criterion
max |DM_out - DM_in|         :     0.0000234845
max |H_out - H_in|      (eV) :     0.0002428228
SCF cycle converged after 8 iterations

Using DM_out to compute the final energy and forces
No. of atoms with KB's overlaping orbs in proc 0. Max # of overlaps:      16     136

siesta: E_KS(eV) =            -2416.9559

siesta: Atomic forces (eV/Ang):
----------------------------------------
   Tot    0.002238   -0.003427    0.002357
----------------------------------------
   Max    0.169428
   Res    0.061512    sqrt( Sum f_i^2 / 3N )
----------------------------------------
   Max    0.169428    constrained

Stress tensor Voigt[x,y,z,yz,xz,xy] (kbar):        0.28       -0.45        0.01        0.01        0.03       -0.32
(Free)E + p*V (eV/cell)    -2416.8648
Target enthalpy (eV/cell)    -2416.9559

cgvc: Finished line minimization   19.  Mean atomic displacement =    0.0122

                     ====================================
                        Begin CG opt. move =     50
                     ====================================

outcell: Unit cell vectors (Ang):
       15.514088    0.000000    0.000000
        0.000000   16.047411    0.000000
        0.000000    0.000000   10.884681

outcell: Cell vector modules (Ang)   :   15.514088   16.047411   10.884681
outcell: Cell angles (23,13,12) (deg):     90.0000     90.0000     90.0000
outcell: Cell volume (Ang**3)        :   2709.8605
<dSpData1D:S at geom step 50
  <sparsity:sparsity for geom step 50
    nrows_g=160 nrows=160 sparsity=.9651 nnzs=24706, refcount: 7>
  <dData1D:(new from dSpData1D) n=24706, refcount: 1>
refcount: 1>
new_DM -- step:    51
Re-using DM from previous geometries...
Number of DMs in history: 1
 DM extrapolation coefficients: 
1   1.00000
New DM after history re-use:
<dSpData2D:SpM extrapolated using coords
  <sparsity:sparsity for geom step 50
    nrows_g=160 nrows=160 sparsity=.9651 nnzs=24706, refcount: 9>
  <dData2D:(temp array for extrapolation) n=24706 m=1, refcount: 1>
refcount: 1>
No. of atoms with KB's overlaping orbs in proc 0. Max # of overlaps:      16     136

InitMesh: MESH = 162 x 180 x 120 = 3499200
InitMesh: Mesh cutoff (required, used) =   300.000   301.356 Ry
New grid distribution [1]: sub = 2

        iscf     Eharris(eV)        E_KS(eV)     FreeEng(eV)     dDmax    Ef(eV) dHmax(eV)
   scf:    1    -2416.951049    -2416.959017    -2416.959017  0.012813 -4.177976  0.074678
   scf:    2    -2416.952477    -2416.957242    -2416.957242  0.005046 -4.177827  0.183249
   scf:    3    -2416.959942    -2416.959387    -2416.959387  0.003400 -4.177095  0.007138
   scf:    4    -2416.959399    -2416.959393    -2416.959393  0.000191 -4.177032  0.004278
   scf:    5    -2416.959400    -2416.959397    -2416.959397  0.000253 -4.176890  0.001442
   scf:    6    -2416.959398    -2416.959398    -2416.959398  0.000096 -4.176881  0.000676

SCF Convergence by DM+H criterion
max |DM_out - DM_in|         :     0.0000957808
max |H_out - H_in|      (eV) :     0.0006761767
SCF cycle converged after 6 iterations

Using DM_out to compute the final energy and forces
No. of atoms with KB's overlaping orbs in proc 0. Max # of overlaps:      16     136

siesta: E_KS(eV) =            -2416.9594

siesta: Atomic forces (eV/Ang):
----------------------------------------
   Tot    0.002236   -0.003793    0.002458
----------------------------------------
   Max    0.163429
   Res    0.046992    sqrt( Sum f_i^2 / 3N )
----------------------------------------
   Max    0.163429    constrained

Stress tensor Voigt[x,y,z,yz,xz,xy] (kbar):        0.19       -0.40       -0.00        0.01        0.01       -0.20
(Free)E + p*V (eV/cell)    -2416.8381
Target enthalpy (eV/cell)    -2416.9594

outcoor: Final (unrelaxed) atomic coordinates (Ang):        
    1.24195231    0.76322526    0.06081265   1       1  C
    2.42738290    1.50867768    0.04875756   2       2  N
   -0.03339171    1.42171271    0.00560277   1       3  C
   -0.10579116    2.53235198   -0.01499378   3       4  H
   -1.22852780    0.66224050   -0.02581304   1       5  C
   -2.77366841    1.50197950   -0.08208280   4       6  Cl
   -1.19951373   -0.75331339   -0.00577986   1       7  C
   -2.14826785   -1.34007100   -0.01575035   3       8  H
    0.06967369   -1.40051773    0.02293083   1       9  C
    0.07438571   -2.89995235    0.00916333   1      10  C
    1.28387925   -0.66299558    0.05122832   1      11  C
    2.25191935   -1.22312309    0.05215787   3      12  H
    2.34227612    2.52021748    0.22250369   3      13  H
    3.25875624    1.08319287    0.48565205   3      14  H
    1.08843217   -3.61038478   -0.01520951   5      15  O
   -0.97776641   -3.35559365    0.01890417   3      16  H

coxmol: Writing XMOL coordinates into file optimization.xyz                                                                                                                                                                                                                    

siesta: Program's energy decomposition (eV):
siesta: Ebs     =      -684.505329
siesta: Eions   =      4055.638103
siesta: Ena     =      1067.767966
siesta: Ekin    =      1479.341037
siesta: Enl     =       -80.768797
siesta: Eso     =         0.000000
siesta: Edftu   =         0.000000
siesta: DEna    =       -59.943784
siesta: DUscf   =         5.959868
siesta: DUext   =         0.000000
siesta: Ex      =      -712.767301
siesta: Ec      =       -60.910283
siesta: Exc     =      -773.677584
siesta: EbV     =         0.000000
siesta: eta*DQ  =         0.000000
siesta: Emadel  =         0.000000
siesta: Emeta   =         0.000000
siesta: Emolmec =         0.000000
siesta: Ekinion =         0.000000
siesta: Eharris =     -2416.959398
siesta: Etot    =     -2416.959398
siesta: FreeEng =     -2416.959398

siesta: Final energy (eV):
siesta:  Band Struct. =    -684.505329
siesta:       Kinetic =    1479.341037
siesta:       Hartree =    4589.464386
siesta:         Edftu =       0.000000
siesta:       Eso     =       0.000000
siesta:    Ext. field =       0.000000
siesta:         Exch. =    -712.767301
siesta:         Corr. =     -60.910283
siesta:     Bulk bias =       0.000000
siesta:   Exch.-corr. =    -773.677584
siesta:  Ion-electron =  -10509.796455
siesta:       Ion-ion =    2797.709218
siesta:       Ekinion =       0.000000
siesta: D3 dispersion =       0.000000
siesta:         Total =   -2416.959398
siesta:         Fermi =      -4.176881

siesta: Atomic forces (eV/Ang):
siesta:      1    0.043455   -0.022630   -0.040498
siesta:      2   -0.033712    0.062760   -0.072642
siesta:      3    0.065537   -0.069645   -0.006005
siesta:      4    0.058315    0.163429    0.025687
siesta:      5   -0.035746    0.029094   -0.006064
siesta:      6    0.072347   -0.027289    0.004661
siesta:      7   -0.012386    0.016802    0.002730
siesta:      8   -0.035190   -0.070075   -0.018183
siesta:      9   -0.033820   -0.040409    0.019623
siesta:     10    0.046480    0.032164   -0.001518
siesta:     11   -0.094406    0.019830    0.013701
siesta:     12   -0.003938   -0.006712    0.027048
siesta:     13   -0.006653    0.031878    0.072558
siesta:     14   -0.022582   -0.045043   -0.031589
siesta:     15    0.002316    0.017940    0.020526
siesta:     16   -0.007781   -0.095888   -0.007577
siesta: ----------------------------------------
siesta:    Tot    0.002236   -0.003793    0.002458

siesta: Stress tensor (static) (eV/Ang**3):
siesta:     0.000117   -0.000122    0.000008
siesta:    -0.000123   -0.000250    0.000005
siesta:     0.000008    0.000004   -0.000001

siesta: Cell volume =       2709.860483 Ang**3

siesta: Pressure (static):
siesta:                Solid            Molecule  Units
siesta:           0.00000049         -0.00000003  Ry/Bohr**3
siesta:           0.00004477         -0.00000234  eV/Ang**3
siesta:           0.07173056         -0.00375564  kBar
(Free)E+ p_basis*V_orbitals  =       -2415.767223
(Free)Eharris+ p_basis*V_orbitals  =       -2415.767224

siesta: Electric dipole (a.u.)  =    0.422107    1.318347    0.337613
siesta: Electric dipole (Debye) =    1.072888    3.350903    0.858126

cite: Please see "optimization.bib" for an exhaustive BiBTeX file.
cite: Please clearly indicate Siesta version in published work: 5.2.1
cite: This calculation has made use of the following articles
cite: which are encouraged to be cited in a published work.
        Primary SIESTA paper
          DOI: www.doi.org/10.1088/0953-8984/14/11/302


timer: Elapsed wall time (sec) =    2212.263
timer: CPU execution times (sec):

Routine            Calls   Time/call    Tot.time        %
siesta                 1    2319.559    2319.559   100.00
Setup                  1       0.882       0.882     0.04
bands                  1       0.000       0.000     0.00
KSV_init               1       0.000       0.000     0.00
IterGeom              51      45.464    2318.657    99.96
geom_init             51       8.184     417.381    17.99
state_init            51       0.242      12.348     0.53
hsparse               51       0.001       0.048     0.00
overlap               51       0.240      12.236     0.53
Setup_H0              51       4.680     238.682    10.29
naefs                102       0.000       0.014     0.00
dnaefs               102       0.000       0.006     0.00
MolMec               102       0.000       0.000     0.00
kinefsm              102       0.124      12.646     0.55
nlefsm               102       0.299      30.514     1.32
DHSCF_Init            51       3.878     197.766     8.53
DHSCF1                51       0.080       4.079     0.18
InitMesh              51       0.080       4.075     0.18
INITMESH              51       0.000       0.000     0.00
DHSCF2                51       3.798     193.686     8.35
REMESH                51       0.192       9.809     0.42
REORD               1821       0.006      10.489     0.45
PHION                 51       2.911     148.453     6.40
COMM_BSC            2265       0.004       9.808     0.42
POISON               579       0.261     151.269     6.52
fft                 1158       0.097     112.444     4.85
setup_H              477       3.464    1652.344    71.24
DHSCF                528       3.885    2051.502    88.44
DHSCF3               528       3.441    1816.715    78.32
rhoofd               528       1.175     620.315    26.74
XC                   528       1.177     621.359    26.79
GXC-CellXC           528       1.149     606.845    26.16
gridxc@cellXC        528       1.149     606.841    26.16
vmat                 528       0.705     372.164    16.04
IterSCF              426       3.515    1497.288    64.55
compute_dm           426       0.026      10.918     0.47
diagon               426       0.025      10.812     0.47
r-eigvec             426       0.012       5.028     0.22
r-buildHS            426       0.000       0.051     0.00
rdiag                426       0.012       4.974     0.21
rdiag1               426       0.001       0.543     0.02
rdiag2               426       0.001       0.537     0.02
rdiag3               426       0.009       3.739     0.16
rdiag4               426       0.000       0.131     0.01
r-buildD             426       0.013       5.712     0.25
MIXER                375       0.000       0.097     0.00
PostSCF               51       7.920     403.929    17.41
FINAL_HF              51       7.920     403.927    17.41
DHSCF4                51       4.604     234.784    10.12
dfscf                 51       4.104     209.312     9.02
overfsm               51       0.009       0.444     0.02
writeHSX              51       0.001       0.033     0.00
state_analysis        51       0.000       0.015     0.00
siesta_move           51       0.001       0.030     0.00
Analysis               1       0.002       0.002     0.00
optical                1       0.000       0.000     0.00
  

>> End of run:  15-MAY-2025  13:01:53
Job completed
Job completed
